 Gaussian 16, Revision C.02,
 Gaussian 16:  ES64L-G16RevC.02  7-Dec-2021

 -----------------------------
 # td=(nstat=3) b3lyp/6-31g(d)
 -----------------------------

 -----------
 phe | No.16
 -----------
 Symbolic Z-matrix:
 Charge =  0 Multiplicity = 1

                         Standard orientation:
 ---------------------------------------------------------------------
 Center     Atomic      Atomic             Coordinates (Angstroms)
 Number     Number       Type             X           Y           Z
 ---------------------------------------------------------------------
      1          6           0       -1.428990    0.180120   -0.338966
      2          1           0       -1.276466   -0.084024   -1.404740
      3          7           0       -1.352341    1.626590   -0.104492
      4          1           0       -0.530291    1.991033   -0.580525
      5          1           0       -2.160041    2.077846   -0.528488
      6          6           0       -2.835365   -0.325329   -0.023445
      7          8           0       -3.111534   -1.380236    0.500196
      8          8           0       -3.790306    0.537806   -0.458503
      9          1           0       -4.647121    0.127338   -0.236162
     10          6           0       -0.401563   -0.614186    0.494631
     11          1           0       -0.591313   -1.678174    0.330450
     12          1           0       -0.619940   -0.414349    1.551232
     13          6           0        1.055718   -0.302050    0.210542
     14          6           0        1.911630   -1.317608   -0.238683
     15          6           0        1.618750    0.953173    0.498086
     16          6           0        3.270638   -1.079465   -0.450646
     17          1           0        1.504136   -2.307247   -0.433694
     18          6           0        2.976182    1.196140    0.284478
     19          1           0        0.992763    1.733473    0.920609
     20          6           0        3.807318    0.182989   -0.197196
     21          1           0        3.909887   -1.883502   -0.806364
     22          1           0        3.388223    2.176353    0.511099
     23          1           0        4.865361    0.371849   -0.358326
 ---------------------------------------------------------------------

 SCF Done:  E(RB3LYP) =  -554.783897972     A.U. after   14 cycles

 Excitation energies and oscillator strengths:

 Excited State   1:      Singlet-A      5.3934 eV  229.88 nm  f=0.0012  <S**2>=0.000
      42 -> 46        -0.10069
      42 -> 47        -0.14357
      43 -> 45        -0.34015
      43 -> 46         0.25077
      43 -> 47         0.16171
      44 -> 45         0.38234
      44 -> 46         0.26530
      44 -> 47         0.21270
 This state for optimization and/or second-order correction.
 Total Energy, E(TD-HF/TD-DFT) =  -554.585694645
 Copying the excited state density for this state as the 1-particle RhoCI density.

 Excited State   2:      Singlet-A      5.5848 eV  222.00 nm  f=0.0022  <S**2>=0.000
      41 -> 46         0.17800
      41 -> 47        -0.17355
      42 -> 46         0.39585
      42 -> 47        -0.23106
      43 -> 47        -0.10323
      44 -> 46         0.33804
      44 -> 47        -0.29458

 Excited State   3:      Singlet-A      5.7834 eV  214.38 nm  f=0.0016  <S**2>=0.000
      41 -> 46         0.40707
      41 -> 47        -0.36600
      44 -> 46        -0.33460
      44 -> 47         0.24343

 The electronic state is 1-A.
 Alpha  occ. eigenvalues --  -19.20495 -19.14632 -14.32116 -10.32573 -10.23641
 Alpha  occ. eigenvalues --  -10.19521 -10.18794 -10.18778 -10.18720 -10.18678
 Alpha  occ. eigenvalues --  -10.18577 -10.18394  -1.11264  -1.02175  -0.89763
 Alpha  occ. eigenvalues --   -0.85004  -0.77560  -0.74013  -0.72815  -0.66960
 Alpha  occ. eigenvalues --   -0.60295  -0.59887  -0.56798  -0.51789  -0.50215
 Alpha  occ. eigenvalues --   -0.49462  -0.48927  -0.46239  -0.45007  -0.43921
 Alpha  occ. eigenvalues --   -0.42733  -0.41456  -0.41071  -0.39310  -0.38488
 Alpha  occ. eigenvalues --   -0.36841  -0.35045  -0.33612  -0.33297  -0.32578
 Alpha  occ. eigenvalues --   -0.28118  -0.24919  -0.24697  -0.23766
 Alpha virt. eigenvalues --   -0.00152  -0.00040   0.00440   0.06518   0.09481
 Alpha virt. eigenvalues --    0.11000   0.12560   0.14086   0.14218   0.16133
 Alpha virt. eigenvalues --    0.16566   0.16743   0.18162   0.19843   0.20339

 Mulliken charges:
               1
     1  C   -0.067338
     2  H    0.152345
     3  N   -0.731461
     4  H    0.308093
     5  H    0.322177
     6  C    0.609826
     7  O   -0.461864
     8  O   -0.583703
     9  H    0.413157
    10  C   -0.333221
    11  H    0.163256
    12  H    0.168166
    13  C    0.152857
    14  C   -0.190808
    15  C   -0.201367
    16  C   -0.125649
    17  H    0.125855
    18  C   -0.128954
    19  H    0.153003
    20  C   -0.130264
    21  H    0.128960
    22  H    0.128769
    23  H    0.128165
 Sum of Mulliken charges =  -0.00000

 Dipole moment (field-independent basis, Debye):
    X=             -0.2113    Y=              1.1405    Z=             -1.8448  Tot=              2.1792
 Quadrupole moment (field-independent basis, Debye-Ang):
   XX=            -59.3813   YY=            -69.4462   ZZ=            -71.9868
   XY=             -3.3157   XZ=              2.4278   YZ=              0.8065

 Normal termination of Gaussian 16 at Fri Feb 21 15:15:59 2025.
