 Gaussian 16, Revision C.02,
 Gaussian 16:  ES64L-G16RevC.02  7-Dec-2021

 -----------------------------
 # td=(nstat=3) b3lyp/6-31g(d)
 -----------------------------

 ----------
 phe | No.4
 ----------
 Symbolic Z-matrix:
 Charge =  0 Multiplicity = 1

                         Standard orientation:
 ---------------------------------------------------------------------
 Center     Atomic      Atomic             Coordinates (Angstroms)
 Number     Number       Type             X           Y           Z
 ---------------------------------------------------------------------
      1          6           0       -1.393447    0.229983    0.234200
      2          1           0       -1.203885    1.320806    0.187387
      3          7           0       -1.274445   -0.320183    1.588170
      4          1           0       -0.320719   -0.175721    1.915899
      5          1           0       -1.891915    0.182361    2.221811
      6          6           0       -2.828957    0.059200   -0.253305
      7          8           0       -3.173909   -0.340264   -1.342014
      8          8           0       -3.719454    0.464967    0.687753
      9          1           0       -4.604417    0.330066    0.299429
     10          6           0       -0.411497   -0.475739   -0.714951
     11          1           0       -0.634775   -0.151110   -1.737497
     12          1           0       -0.611598   -1.550902   -0.672019
     13          6           0        1.042684   -0.200802   -0.382826
     14          6           0        1.912830   -1.249009   -0.056301
     15          6           0        1.564234    1.101933   -0.430581
     16          6           0        3.259316   -1.006986    0.225410
     17          1           0        1.528627   -2.265664   -0.020694
     18          6           0        2.907141    1.349035   -0.147618
     19          1           0        0.915232    1.931724   -0.703036
     20          6           0        3.760868    0.293751    0.182708
     21          1           0        3.914697   -1.836886    0.476774
     22          1           0        3.289568    2.365603   -0.192083
     23          1           0        4.808174    0.485173    0.400511
 ---------------------------------------------------------------------

 SCF Done:  E(RB3LYP) =  -554.785709379     A.U. after   14 cycles

 Excitation energies and oscillator strengths:

 Excited State   1:      Singlet-A      5.4064 eV  229.33 nm  f=0.0031  <S**2>=0.000
      42 -> 45        -0.30943
      42 -> 46        -0.29206
      43 -> 45        -0.15304
      43 -> 46         0.23325
      43 -> 47        -0.16306
      44 -> 45         0.38542
      44 -> 46        -0.23519
 This state for optimization and/or second-order correction.
 Total Energy, E(TD-HF/TD-DFT) =  -554.587028341
 Copying the excited state density for this state as the 1-particle RhoCI density.

 Excited State   2:      Singlet-A      5.4427 eV  227.80 nm  f=0.0016  <S**2>=0.000
      41 -> 47        -0.21917
      42 -> 45        -0.13095
      42 -> 46        -0.11195
      43 -> 45        -0.29611
      43 -> 46         0.17312
      43 -> 47         0.26969
      44 -> 45        -0.17531
      44 -> 47         0.43865

 Excited State   3:      Singlet-A      5.7151 eV  216.94 nm  f=0.0072  <S**2>=0.000
      41 -> 47        -0.10127
      42 -> 45         0.10927
      43 -> 45         0.26083
      43 -> 47         0.17725
      44 -> 45         0.47710
      44 -> 46         0.31753
      44 -> 47         0.18251

 The electronic state is 1-A.
 Alpha  occ. eigenvalues --  -19.20072 -19.14358 -14.31798 -10.32197 -10.23381
 Alpha  occ. eigenvalues --  -10.19793 -10.19172 -10.19064 -10.19008 -10.18977
 Alpha  occ. eigenvalues --  -10.18841 -10.18827  -1.10880  -1.01836  -0.89533
 Alpha  occ. eigenvalues --   -0.85344  -0.77716  -0.74390  -0.72679  -0.67124
 Alpha  occ. eigenvalues --   -0.60729  -0.59752  -0.56730  -0.51577  -0.50478
 Alpha  occ. eigenvalues --   -0.49341  -0.48572  -0.45963  -0.45218  -0.45028
 Alpha  occ. eigenvalues --   -0.42163  -0.41640  -0.41233  -0.39043  -0.38498
 Alpha  occ. eigenvalues --   -0.36917  -0.35208  -0.33852  -0.33688  -0.32230
 Alpha  occ. eigenvalues --   -0.28263  -0.25068  -0.24509  -0.23875
 Alpha virt. eigenvalues --   -0.00539  -0.00028   0.00686   0.06938   0.09110
 Alpha virt. eigenvalues --    0.10516   0.12067   0.13002   0.14570   0.16035
 Alpha virt. eigenvalues --    0.16172   0.16545   0.18683   0.19330   0.20427

 Mulliken charges:
               1
     1  C   -0.068303
     2  H    0.144846
     3  N   -0.726258
     4  H    0.311383
     5  H    0.315026
     6  C    0.615470
     7  O   -0.463976
     8  O   -0.580237
     9  H    0.411164
    10  C   -0.335366
    11  H    0.171658
    12  H    0.163755
    13  C    0.149938
    14  C   -0.187750
    15  C   -0.183565
    16  C   -0.126939
    17  H    0.132969
    18  C   -0.128749
    19  H    0.125029
    20  C   -0.131070
    21  H    0.131215
    22  H    0.129953
    23  H    0.129808
 Sum of Mulliken charges =  -0.00000

 Dipole moment (field-independent basis, Debye):
    X=              0.4853    Y=              1.6457    Z=              1.4362  Tot=              2.2375
 Quadrupole moment (field-independent basis, Debye-Ang):
   XX=            -60.9725   YY=            -67.2115   ZZ=            -74.0380
   XY=             -3.6861   XZ=             -2.4976   YZ=              0.0495

 Normal termination of Gaussian 16 at Fri Feb 21 15:16:03 2025.
