 Gaussian 16, Revision C.02,
 Gaussian 16:  ES64L-G16RevC.02  7-Dec-2021

 -----------------------------
 # td=(nstat=3) b3lyp/6-31g(d)
 -----------------------------

 ----------
 phe | No.1
 ----------
 Symbolic Z-matrix:
 Charge =  0 Multiplicity = 1

                         Standard orientation:
 ---------------------------------------------------------------------
 Center     Atomic      Atomic             Coordinates (Angstroms)
 Number     Number       Type             X           Y           Z
 ---------------------------------------------------------------------
      1          6           0       -1.372598    0.096984   -0.318620
      2          1           0       -1.161869   -0.421369   -1.275825
      3          7           0       -1.238261    1.553535   -0.409790
      4          1           0       -0.297890    1.775204   -0.731944
      5          1           0       -1.888110    1.915416   -1.104135
      6          6           0       -2.817905   -0.262924    0.013217
      7          8           0       -3.181458   -1.105630    0.801528
      8          8           0       -3.693083    0.454014   -0.737824
      9          1           0       -4.583921    0.154995   -0.474784
     10          6           0       -0.420064   -0.475500    0.749283
     11          1           0       -0.647804   -1.538552    0.872231
     12          1           0       -0.649957    0.016622    1.700212
     13          6           0        1.039184   -0.285425    0.393411
     14          6           0        1.737239    0.864753    0.790778
     15          6           0        1.719912   -1.245081   -0.369870
     16          6           0        3.074379    1.051166    0.434077
     17          1           0        1.226153    1.614530    1.389930
     18          6           0        3.055940   -1.062729   -0.728002
     19          1           0        1.198010   -2.148550   -0.678899
     20          6           0        3.738053    0.087987   -0.327303
     21          1           0        3.598490    1.947134    0.756833
     22          1           0        3.566171   -1.822174   -1.314957
     23          1           0        4.780039    0.229542   -0.601586
 ---------------------------------------------------------------------

 SCF Done:  E(RB3LYP) =  -554.786630156     A.U. after   14 cycles

 Excitation energies and oscillator strengths:

 Excited State   1:      Singlet-A      5.4113 eV  229.12 nm  f=0.0012  <S**2>=0.000
      42 -> 45         0.28997
      42 -> 46         0.32760
      43 -> 45        -0.17846
      43 -> 46         0.29745
      44 -> 45         0.38748
      44 -> 46        -0.18052
 This state for optimization and/or second-order correction.
 Total Energy, E(TD-HF/TD-DFT) =  -554.587768720
 Copying the excited state density for this state as the 1-particle RhoCI density.

 Excited State   2:      Singlet-A      5.5001 eV  225.42 nm  f=0.0029  <S**2>=0.000
      41 -> 47         0.26495
      43 -> 47         0.39286
      44 -> 45         0.10542
      44 -> 47         0.48842

 Excited State   3:      Singlet-A      5.7607 eV  215.22 nm  f=0.0115  <S**2>=0.000
      42 -> 45        -0.11822
      43 -> 45         0.11998
      43 -> 46         0.27136
      44 -> 45         0.26632
      44 -> 46         0.56406

 The electronic state is 1-A.
 Alpha  occ. eigenvalues --  -19.20170 -19.14410 -14.31823 -10.32279 -10.23418
 Alpha  occ. eigenvalues --  -10.19681 -10.19087 -10.19058 -10.18944 -10.18890
 Alpha  occ. eigenvalues --  -10.18762 -10.18742  -1.10962  -1.01905  -0.89572
 Alpha  occ. eigenvalues --   -0.85274  -0.77677  -0.74321  -0.72691  -0.67043
 Alpha  occ. eigenvalues --   -0.60467  -0.59865  -0.56849  -0.51499  -0.50421
 Alpha  occ. eigenvalues --   -0.49393  -0.48673  -0.46107  -0.45256  -0.44553
 Alpha  occ. eigenvalues --   -0.42270  -0.41809  -0.41117  -0.39065  -0.38293
 Alpha  occ. eigenvalues --   -0.36910  -0.35218  -0.33750  -0.33640  -0.32305
 Alpha  occ. eigenvalues --   -0.28199  -0.25056  -0.24583  -0.23889
 Alpha virt. eigenvalues --   -0.00268  -0.00178   0.00505   0.06881   0.09309
 Alpha virt. eigenvalues --    0.10903   0.12611   0.13273   0.14715   0.15880
 Alpha virt. eigenvalues --    0.16470   0.16678   0.18258   0.19162   0.19536

 Mulliken charges:
               1
     1  C   -0.061407
     2  H    0.147408
     3  N   -0.731875
     4  H    0.311466
     5  H    0.317238
     6  C    0.612507
     7  O   -0.463680
     8  O   -0.580495
     9  H    0.411518
    10  C   -0.335360
    11  H    0.165287
    12  H    0.163783
    13  C    0.144396
    14  C   -0.189742
    15  C   -0.181359
    16  C   -0.129245
    17  H    0.141826
    18  C   -0.127977
    19  H    0.125623
    20  C   -0.130611
    21  H    0.131001
    22  H    0.130143
    23  H    0.129553
 Sum of Mulliken charges =  -0.00000

 Dipole moment (field-independent basis, Debye):
    X=              0.3808    Y=              0.6391    Z=             -2.1335  Tot=              2.2595
 Quadrupole moment (field-independent basis, Debye-Ang):
   XX=            -61.1253   YY=            -70.0527   ZZ=            -70.9482
   XY=             -1.4127   XZ=              3.4771   YZ=              2.3454

 Normal termination of Gaussian 16 at Fri Feb 21 15:15:30 2025.
