 Gaussian 16, Revision C.02,
 Gaussian 16:  ES64L-G16RevC.02  7-Dec-2021

 -----------------------------
 # td=(nstat=3) b3lyp/6-31g(d)
 -----------------------------

 ----------
 phe | No.2
 ----------
 Symbolic Z-matrix:
 Charge =  0 Multiplicity = 1

                         Standard orientation:
 ---------------------------------------------------------------------
 Center     Atomic      Atomic             Coordinates (Angstroms)
 Number     Number       Type             X           Y           Z
 ---------------------------------------------------------------------
      1          6           0       -1.373790    0.066770   -0.320197
      2          1           0       -1.162779   -0.558624   -1.211065
      3          7           0       -1.238311    1.503370   -0.576390
      4          1           0       -0.285802    1.691696   -0.884323
      5          1           0       -1.861185    1.779844   -1.331936
      6          6           0       -2.819702   -0.248917    0.050689
      7          8           0       -3.186299   -0.979168    0.942978
      8          8           0       -3.691339    0.361144   -0.792881
      9          1           0       -4.583492    0.100892   -0.495336
     10          6           0       -0.419151   -0.372056    0.805796
     11          1           0       -0.651227   -1.410418    1.062788
     12          1           0       -0.637645    0.236189    1.689407
     13          6           0        1.037798   -0.236070    0.415777
     14          6           0        1.800148    0.861602    0.839014
     15          6           0        1.655738   -1.202474   -0.392278
     16          6           0        3.138715    0.993990    0.462575
     17          1           0        1.338158    1.616126    1.471239
     18          6           0        2.991901   -1.073995   -0.770898
     19          1           0        1.084868   -2.069238   -0.719688
     20          6           0        3.738662    0.026784   -0.344432
     21          1           0        3.712719    1.851250    0.804859
     22          1           0        3.452627   -1.836874   -1.393271
     23          1           0        4.781120    0.125944   -0.634990
 ---------------------------------------------------------------------

 SCF Done:  E(RB3LYP) =  -554.786573655     A.U. after   14 cycles

 Excitation energies and oscillator strengths:

 Excited State   1:      Singlet-A      5.4112 eV  229.13 nm  f=0.0020  <S**2>=0.000
      42 -> 45         0.32746
      42 -> 46         0.29287
      43 -> 45        -0.16960
      43 -> 46         0.31450
      44 -> 45         0.36415
      44 -> 46        -0.19582
 This state for optimization and/or second-order correction.
 Total Energy, E(TD-HF/TD-DFT) =  -554.587715653
 Copying the excited state density for this state as the 1-particle RhoCI density.

 Excited State   2:      Singlet-A      5.4743 eV  226.48 nm  f=0.0028  <S**2>=0.000
      41 -> 47         0.24957
      43 -> 45         0.16597
      43 -> 47         0.34203
      44 -> 45         0.15822
      44 -> 47         0.48862

 Excited State   3:      Singlet-A      5.7343 eV  216.21 nm  f=0.0115  <S**2>=0.000
      42 -> 45        -0.17235
      43 -> 45         0.26980
      44 -> 45         0.46640
      44 -> 46         0.37651

 The electronic state is 1-A.
 Alpha  occ. eigenvalues --  -19.20106 -19.14369 -14.31788 -10.32220 -10.23385
 Alpha  occ. eigenvalues --  -10.19721 -10.19139 -10.19081 -10.18979 -10.18949
 Alpha  occ. eigenvalues --  -10.18826 -10.18767  -1.10905  -1.01855  -0.89542
 Alpha  occ. eigenvalues --   -0.85321  -0.77702  -0.74367  -0.72667  -0.67073
 Alpha  occ. eigenvalues --   -0.60558  -0.59821  -0.56824  -0.51488  -0.50465
 Alpha  occ. eigenvalues --   -0.49369  -0.48616  -0.46044  -0.45276  -0.44748
 Alpha  occ. eigenvalues --   -0.42184  -0.41806  -0.41147  -0.39035  -0.38314
 Alpha  occ. eigenvalues --   -0.36921  -0.35226  -0.33789  -0.33695  -0.32253
 Alpha  occ. eigenvalues --   -0.28225  -0.25089  -0.24539  -0.23881
 Alpha virt. eigenvalues --   -0.00418  -0.00111   0.00598   0.06935   0.09228
 Alpha virt. eigenvalues --    0.10766   0.12487   0.13071   0.14630   0.15912
 Alpha virt. eigenvalues --    0.16396   0.16636   0.18491   0.19133   0.19619

 Mulliken charges:
               1
     1  C   -0.062295
     2  H    0.146243
     3  N   -0.730474
     4  H    0.311570
     5  H    0.316187
     6  C    0.613388
     7  O   -0.463996
     8  O   -0.580027
     9  H    0.411238
    10  C   -0.335786
    11  H    0.167291
    12  H    0.163440
    13  C    0.144424
    14  C   -0.187247
    15  C   -0.180585
    16  C   -0.128490
    17  H    0.137853
    18  C   -0.128386
    19  H    0.125277
    20  C   -0.130844
    21  H    0.131224
    22  H    0.130235
    23  H    0.129758
 Sum of Mulliken charges =  -0.00000

 Dipole moment (field-independent basis, Debye):
    X=              0.4685    Y=              0.3729    Z=             -2.1813  Tot=              2.2620
 Quadrupole moment (field-independent basis, Debye-Ang):
   XX=            -61.2634   YY=            -70.2238   ZZ=            -70.7892
   XY=             -0.5890   XZ=              3.8689   YZ=              2.7559

 Normal termination of Gaussian 16 at Fri Feb 21 15:15:31 2025.
