 Gaussian 16, Revision C.02,
 Gaussian 16:  ES64L-G16RevC.02  7-Dec-2021

 -----------------------------
 # td=(nstat=3) b3lyp/6-31g(d)
 -----------------------------

 ----------
 phe | No.9
 ----------
 Symbolic Z-matrix:
 Charge =  0 Multiplicity = 1

                         Standard orientation:
 ---------------------------------------------------------------------
 Center     Atomic      Atomic             Coordinates (Angstroms)
 Number     Number       Type             X           Y           Z
 ---------------------------------------------------------------------
      1          6           0        1.434492   -0.329908   -0.049371
      2          1           0        1.243264   -0.871359   -0.997344
      3          7           0        1.445530   -1.199185    1.132922
      4          1           0        0.517646   -1.594318    1.269816
      5          1           0        2.092101   -1.972095    0.993806
      6          6           0        2.825560    0.273528   -0.228354
      7          8           0        3.082348    1.430638   -0.470900
      8          8           0        3.787394   -0.678859   -0.129095
      9          1           0        4.638299   -0.219384   -0.258817
     10          6           0        0.388769    0.777014    0.101833
     11          1           0        0.582320    1.530935   -0.670414
     12          1           0        0.566652    1.275960    1.062010
     13          6           0       -1.066184    0.340276    0.018687
     14          6           0       -2.061739    1.269439    0.361098
     15          6           0       -1.476740   -0.922128   -0.429330
     16          6           0       -3.414182    0.949976    0.266781
     17          1           0       -1.765744    2.257193    0.708353
     18          6           0       -2.833089   -1.249135   -0.522825
     19          1           0       -0.740698   -1.668596   -0.715838
     20          6           0       -3.807394   -0.315850   -0.175718
     21          1           0       -4.162892    1.689165    0.539856
     22          1           0       -3.123044   -2.237318   -0.870768
     23          1           0       -4.861519   -0.569398   -0.247954
 ---------------------------------------------------------------------

 SCF Done:  E(RB3LYP) =  -554.782843020     A.U. after   14 cycles

 Excitation energies and oscillator strengths:

 Excited State   1:      Singlet-A      5.3924 eV  229.92 nm  f=0.0033  <S**2>=0.000
      42 -> 45         0.25166
      42 -> 46         0.23651
      42 -> 47        -0.13733
      43 -> 45        -0.13133
      43 -> 46         0.36177
      44 -> 45         0.44500
 This state for optimization and/or second-order correction.
 Total Energy, E(TD-HF/TD-DFT) =  -554.584674519
 Copying the excited state density for this state as the 1-particle RhoCI density.

 Excited State   2:      Singlet-A      5.4528 eV  227.38 nm  f=0.0016  <S**2>=0.000
      41 -> 46        -0.10997
      41 -> 47        -0.21017
      42 -> 46        -0.15135
      42 -> 47        -0.11880
      43 -> 46         0.17928
      43 -> 47         0.32653
      44 -> 46         0.32819
      44 -> 47         0.38495

 Excited State   3:      Singlet-A      5.8312 eV  212.62 nm  f=0.0086  <S**2>=0.000
      42 -> 45        -0.23157
      43 -> 45         0.47804
      43 -> 46        -0.13765
      44 -> 45         0.38985
      44 -> 46        -0.18382

 The electronic state is 1-A.
 Alpha  occ. eigenvalues --  -19.20114 -19.14415 -14.32005 -10.32273 -10.23476
 Alpha  occ. eigenvalues --  -10.20037 -10.19143 -10.19056 -10.19041 -10.18989
 Alpha  occ. eigenvalues --  -10.18867 -10.18724  -1.10947  -1.01900  -0.89680
 Alpha  occ. eigenvalues --   -0.85331  -0.77782  -0.74387  -0.72860  -0.67197
 Alpha  occ. eigenvalues --   -0.61092  -0.59668  -0.56639  -0.51886  -0.50502
 Alpha  occ. eigenvalues --   -0.49243  -0.48646  -0.46248  -0.45254  -0.44729
 Alpha  occ. eigenvalues --   -0.42481  -0.41793  -0.41254  -0.39329  -0.38743
 Alpha  occ. eigenvalues --   -0.36971  -0.35127  -0.33898  -0.33595  -0.32296
 Alpha  occ. eigenvalues --   -0.28319  -0.25213  -0.24330  -0.23847
 Alpha virt. eigenvalues --   -0.00356  -0.00084   0.00711   0.06725   0.09166
 Alpha virt. eigenvalues --    0.10571   0.12483   0.13200   0.14198   0.15783
 Alpha virt. eigenvalues --    0.16052   0.16659   0.18381   0.19492   0.20203

 Mulliken charges:
               1
     1  C   -0.078597
     2  H    0.146226
     3  N   -0.726474
     4  H    0.310792
     5  H    0.314926
     6  C    0.619288
     7  O   -0.464635
     8  O   -0.581502
     9  H    0.411920
    10  C   -0.337187
    11  H    0.179620
    12  H    0.171652
    13  C    0.158698
    14  C   -0.176962
    15  C   -0.194596
    16  C   -0.128197
    17  H    0.127961
    18  C   -0.134356
    19  H    0.121811
    20  C   -0.129619
    21  H    0.131035
    22  H    0.128981
    23  H    0.129217
 Sum of Mulliken charges =  -0.00000

 Dipole moment (field-independent basis, Debye):
    X=             -0.3452    Y=             -1.9402    Z=             -0.6084  Tot=              2.0625
 Quadrupole moment (field-independent basis, Debye-Ang):
   XX=            -60.2416   YY=            -67.8094   ZZ=            -73.9306
   XY=             -4.9689   XZ=             -1.8444   YZ=              2.7614

 Normal termination of Gaussian 16 at Fri Feb 21 15:15:36 2025.
