 Gaussian 16, Revision C.02,
 Gaussian 16:  ES64L-G16RevC.02  7-Dec-2021

 -----------------------------
 # td=(nstat=3) b3lyp/6-31g(d)
 -----------------------------

 -----------
 phe | No.12
 -----------
 Symbolic Z-matrix:
 Charge =  0 Multiplicity = 1

                         Standard orientation:
 ---------------------------------------------------------------------
 Center     Atomic      Atomic             Coordinates (Angstroms)
 Number     Number       Type             X           Y           Z
 ---------------------------------------------------------------------
      1          6           0        1.432145   -0.346369   -0.018134
      2          1           0        1.115080   -0.695740   -1.019945
      3          7           0        1.666028   -1.438673    0.938151
      4          1           0        0.786989   -1.901405    1.156118
      5          1           0        2.289135   -2.133876    0.533851
      6          6           0        2.761731    0.369599   -0.258334
      7          8           0        2.944800    1.565284   -0.281614
      8          8           0        3.755315   -0.521122   -0.504064
      9          1           0        4.562328    0.006547   -0.652942
     10          6           0        0.373119    0.628424    0.512452
     11          1           0        0.590816    1.621533    0.107734
     12          1           0        0.519586    0.707017    1.598797
     13          6           0       -1.074714    0.279636    0.204967
     14          6           0       -2.039027    1.297492    0.272456
     15          6           0       -1.505052   -1.004595   -0.154159
     16          6           0       -3.383504    1.040618    0.011337
     17          1           0       -1.726030    2.306070    0.534118
     18          6           0       -2.851368   -1.267417   -0.421502
     19          1           0       -0.789368   -1.818225   -0.239302
     20          6           0       -3.797175   -0.247310   -0.336979
     21          1           0       -4.107966    1.848785    0.071137
     22          1           0       -3.156470   -2.273202   -0.698881
     23          1           0       -4.844149   -0.450556   -0.544941
 ---------------------------------------------------------------------

 SCF Done:  E(RB3LYP) =  -554.781457455     A.U. after   14 cycles

 Excitation energies and oscillator strengths:

 Excited State   1:      Singlet-A      5.3978 eV  229.70 nm  f=0.0031  <S**2>=0.000
      42 -> 45         0.19275
      42 -> 46        -0.28079
      42 -> 47        -0.12499
      43 -> 46        -0.33221
      44 -> 45         0.48730
 This state for optimization and/or second-order correction.
 Total Energy, E(TD-HF/TD-DFT) =  -554.583093138
 Copying the excited state density for this state as the 1-particle RhoCI density.

 Excited State   2:      Singlet-A      5.4911 eV  225.79 nm  f=0.0023  <S**2>=0.000
      41 -> 47        -0.23788
      42 -> 45        -0.12831
      42 -> 46         0.11896
      42 -> 47        -0.16368
      43 -> 45         0.18860
      43 -> 47         0.38969
      44 -> 46        -0.13541
      44 -> 47         0.40485

 Excited State   3:      Singlet-A      5.8949 eV  210.32 nm  f=0.0007  <S**2>=0.000
      43 -> 45         0.37687
      43 -> 46         0.30915
      44 -> 45         0.15997
      44 -> 46         0.46766

 The electronic state is 1-A.
 Alpha  occ. eigenvalues --  -19.20127 -19.14454 -14.32315 -10.32277 -10.23519
 Alpha  occ. eigenvalues --  -10.19942 -10.19086 -10.19012 -10.18971 -10.18880
 Alpha  occ. eigenvalues --  -10.18810 -10.18667  -1.10977  -1.01922  -0.89764
 Alpha  occ. eigenvalues --   -0.85295  -0.77778  -0.74326  -0.72772  -0.67215
 Alpha  occ. eigenvalues --   -0.60980  -0.59638  -0.56797  -0.51852  -0.50659
 Alpha  occ. eigenvalues --   -0.48985  -0.48746  -0.46573  -0.45119  -0.44454
 Alpha  occ. eigenvalues --   -0.42877  -0.41905  -0.41126  -0.38999  -0.38905
 Alpha  occ. eigenvalues --   -0.36815  -0.35051  -0.33838  -0.33575  -0.32328
 Alpha  occ. eigenvalues --   -0.28394  -0.25140  -0.24432  -0.23869
 Alpha virt. eigenvalues --   -0.00292   0.00060   0.00671   0.06576   0.08861
 Alpha virt. eigenvalues --    0.10640   0.12943   0.13065   0.13948   0.15390
 Alpha virt. eigenvalues --    0.15865   0.16886   0.18386   0.19089   0.20657

 Mulliken charges:
               1
     1  C   -0.063506
     2  H    0.151796
     3  N   -0.730754
     4  H    0.311694
     5  H    0.315588
     6  C    0.610335
     7  O   -0.462177
     8  O   -0.578066
     9  H    0.412378
    10  C   -0.361615
    11  H    0.183406
    12  H    0.176850
    13  C    0.166743
    14  C   -0.182413
    15  C   -0.188267
    16  C   -0.126642
    17  H    0.128089
    18  C   -0.132635
    19  H    0.111576
    20  C   -0.130372
    21  H    0.130617
    22  H    0.128449
    23  H    0.128927
 Sum of Mulliken charges =  -0.00000

 Dipole moment (field-independent basis, Debye):
    X=             -0.3164    Y=             -1.8148    Z=             -0.9181  Tot=              2.0583
 Quadrupole moment (field-independent basis, Debye-Ang):
   XX=            -60.9840   YY=            -67.7466   ZZ=            -73.4729
   XY=             -4.1319   XZ=             -2.9612   YZ=              1.9778

 Normal termination of Gaussian 16 at Fri Feb 21 15:15:36 2025.
