 Gaussian 16, Revision C.02,
 Gaussian 16:  ES64L-G16RevC.02  7-Dec-2021

 -----------------------------
 # td=(nstat=3) b3lyp/6-31g(d)
 -----------------------------

 -----------
 phe | No.15
 -----------
 Symbolic Z-matrix:
 Charge =  0 Multiplicity = 1

                         Standard orientation:
 ---------------------------------------------------------------------
 Center     Atomic      Atomic             Coordinates (Angstroms)
 Number     Number       Type             X           Y           Z
 ---------------------------------------------------------------------
      1          6           0       -1.425916    0.387864   -0.065335
      2          1           0       -1.038185    0.481704   -1.097935
      3          7           0       -1.787207    1.679321    0.539684
      4          1           0       -0.960413    2.268442    0.604816
      5          1           0       -2.451029    2.164398   -0.060575
      6          6           0       -2.703470   -0.443276   -0.206379
      7          8           0       -2.839782   -1.613751    0.067162
      8          8           0       -3.706199    0.294000   -0.748103
      9          1           0       -4.475656   -0.302028   -0.815453
     10          6           0       -0.373588   -0.357403    0.782831
     11          1           0       -0.618407   -1.422540    0.768186
     12          1           0       -0.505467   -0.022895    1.820849
     13          6           0        1.068776   -0.178728    0.343697
     14          6           0        1.882789   -1.307336    0.172065
     15          6           0        1.644216    1.081208    0.119077
     16          6           0        3.219377   -1.187388   -0.211203
     17          1           0        1.459330   -2.295023    0.339354
     18          6           0        2.978111    1.208377   -0.269897
     19          1           0        1.052839    1.984217    0.249914
     20          6           0        3.772974    0.073159   -0.435988
     21          1           0        3.825694   -2.080649   -0.337622
     22          1           0        3.397295    2.197048   -0.438609
     23          1           0        4.812672    0.171224   -0.736389
 ---------------------------------------------------------------------

 SCF Done:  E(RB3LYP) =  -554.780691594     A.U. after   14 cycles

 Excitation energies and oscillator strengths:

 Excited State   1:      Singlet-A      5.4210 eV  228.71 nm  f=0.0010  <S**2>=0.000
      42 -> 45         0.14078
      42 -> 46        -0.40393
      42 -> 47        -0.12097
      43 -> 45        -0.17206
      43 -> 47        -0.11595
      44 -> 45         0.46699
      44 -> 46         0.15085
      44 -> 47         0.10342
 This state for optimization and/or second-order correction.
 Total Energy, E(TD-HF/TD-DFT) =  -554.581472517
 Copying the excited state density for this state as the 1-particle RhoCI density.

 Excited State   2:      Singlet-A      5.5092 eV  225.05 nm  f=0.0034  <S**2>=0.000
      41 -> 45        -0.10329
      41 -> 46        -0.11438
      41 -> 47         0.21772
      42 -> 46        -0.12370
      43 -> 45        -0.31503
      43 -> 46        -0.24051
      43 -> 47         0.35739
      44 -> 46        -0.15584
      44 -> 47         0.30738

 Excited State   3:      Singlet-A      5.9032 eV  210.03 nm  f=0.0025  <S**2>=0.000
      43 -> 45         0.48288
      43 -> 46        -0.30833
      44 -> 45         0.27899
      44 -> 46        -0.28112

 The electronic state is 1-A.
 Alpha  occ. eigenvalues --  -19.20212 -19.14525 -14.32303 -10.32338 -10.23513
 Alpha  occ. eigenvalues --  -10.19756 -10.19085 -10.19020 -10.18921 -10.18832
 Alpha  occ. eigenvalues --  -10.18652 -10.18645  -1.11053  -1.01987  -0.89692
 Alpha  occ. eigenvalues --   -0.85273  -0.77695  -0.74289  -0.72641  -0.67155
 Alpha  occ. eigenvalues --   -0.60669  -0.59736  -0.56972  -0.51625  -0.50710
 Alpha  occ. eigenvalues --   -0.48922  -0.48847  -0.46614  -0.45048  -0.44334
 Alpha  occ. eigenvalues --   -0.42967  -0.41870  -0.40924  -0.39192  -0.38564
 Alpha  occ. eigenvalues --   -0.36551  -0.35058  -0.33782  -0.33550  -0.32404
 Alpha  occ. eigenvalues --   -0.28302  -0.24942  -0.24519  -0.24101
 Alpha virt. eigenvalues --   -0.00303  -0.00020   0.00730   0.06234   0.08080
 Alpha virt. eigenvalues --    0.10576   0.12775   0.13302   0.13857   0.15518
 Alpha virt. eigenvalues --    0.16081   0.17218   0.17488   0.19601   0.21989

 Mulliken charges:
               1
     1  C   -0.051987
     2  H    0.155305
     3  N   -0.736431
     4  H    0.313668
     5  H    0.316600
     6  C    0.602482
     7  O   -0.459581
     8  O   -0.577056
     9  H    0.412725
    10  C   -0.375274
    11  H    0.183763
    12  H    0.174743
    13  C    0.170542
    14  C   -0.193034
    15  C   -0.181189
    16  C   -0.123611
    17  H    0.131015
    18  C   -0.127138
    19  H    0.108043
    20  C   -0.132080
    21  H    0.130431
    22  H    0.128822
    23  H    0.129242
 Sum of Mulliken charges =  -0.00000

 Dipole moment (field-independent basis, Debye):
    X=              0.2551    Y=              1.5546    Z=             -1.5045  Tot=              2.1784
 Quadrupole moment (field-independent basis, Debye-Ang):
   XX=            -61.2885   YY=            -67.6134   ZZ=            -73.0121
   XY=             -2.3400   XZ=              3.5571   YZ=             -0.8455

 Normal termination of Gaussian 16 at Fri Feb 21 15:15:37 2025.
