 Gaussian 16, Revision C.02,
 Gaussian 16:  ES64L-G16RevC.02  7-Dec-2021

 -----------------------------
 # td=(nstat=3) b3lyp/6-31g(d)
 -----------------------------

 ----------
 phe | No.5
 ----------
 Symbolic Z-matrix:
 Charge =  0 Multiplicity = 1

                         Standard orientation:
 ---------------------------------------------------------------------
 Center     Atomic      Atomic             Coordinates (Angstroms)
 Number     Number       Type             X           Y           Z
 ---------------------------------------------------------------------
      1          6           0        1.407174   -0.326955    0.069361
      2          1           0        1.240246   -1.227450   -0.554066
      3          7           0        1.292880   -0.589583    1.507645
      4          1           0        0.344017   -0.901581    1.707673
      5          1           0        1.922348   -1.343536    1.773328
      6          6           0        2.835024    0.106626   -0.248390
      7          8           0        3.164048    1.040041   -0.944184
      8          8           0        3.739984   -0.730435    0.320682
      9          1           0        4.619347   -0.390317    0.069332
     10          6           0        0.407743    0.759371   -0.354623
     11          1           0        0.619943    1.026985   -1.396560
     12          1           0        0.604595    1.653604    0.245025
     13          6           0       -1.046500    0.348925   -0.208578
     14          6           0       -1.952693    1.185299    0.457002
     15          6           0       -1.538563   -0.836239   -0.777861
     16          6           0       -3.303441    0.848485    0.562326
     17          1           0       -1.592122    2.110271    0.900839
     18          6           0       -2.886619   -1.179396   -0.671873
     19          1           0       -0.865253   -1.496043   -1.320644
     20          6           0       -3.775487   -0.337660   -0.000135
     21          1           0       -3.985349    1.513894    1.085474
     22          1           0       -3.244002   -2.102844   -1.120421
     23          1           0       -4.826019   -0.603497    0.081148
 ---------------------------------------------------------------------

 SCF Done:  E(RB3LYP) =  -554.785052539     A.U. after   14 cycles

 Excitation energies and oscillator strengths:

 Excited State   1:      Singlet-A      5.4036 eV  229.45 nm  f=0.0025  <S**2>=0.000
      42 -> 45         0.28127
      42 -> 46         0.30648
      43 -> 45         0.17557
      43 -> 46        -0.17203
      43 -> 47        -0.18582
      44 -> 45         0.38516
      44 -> 46        -0.25308
      44 -> 47         0.10540
 This state for optimization and/or second-order correction.
 Total Energy, E(TD-HF/TD-DFT) =  -554.586472261
 Copying the excited state density for this state as the 1-particle RhoCI density.

 Excited State   2:      Singlet-A      5.4332 eV  228.20 nm  f=0.0012  <S**2>=0.000
      41 -> 47        -0.20614
      42 -> 45        -0.10588
      42 -> 46        -0.15329
      43 -> 45        -0.34863
      43 -> 46         0.13294
      43 -> 47        -0.24806
      44 -> 45         0.18318
      44 -> 47         0.41706

 Excited State   3:      Singlet-A      5.7284 eV  216.44 nm  f=0.0049  <S**2>=0.000
      41 -> 47         0.12514
      43 -> 45        -0.23366
      43 -> 46        -0.10926
      43 -> 47         0.20558
      44 -> 45         0.47017
      44 -> 46         0.31127
      44 -> 47        -0.21486

 The electronic state is 1-A.
 Alpha  occ. eigenvalues --  -19.20078 -19.14371 -14.31809 -10.32212 -10.23396
 Alpha  occ. eigenvalues --  -10.19839 -10.19173 -10.19050 -10.19020 -10.18959
 Alpha  occ. eigenvalues --  -10.18866 -10.18812  -1.10888  -1.01850  -0.89544
 Alpha  occ. eigenvalues --   -0.85339  -0.77714  -0.74387  -0.72715  -0.67141
 Alpha  occ. eigenvalues --   -0.60817  -0.59727  -0.56673  -0.51639  -0.50461
 Alpha  occ. eigenvalues --   -0.49354  -0.48568  -0.45948  -0.45161  -0.45128
 Alpha  occ. eigenvalues --   -0.42181  -0.41570  -0.41275  -0.39061  -0.38611
 Alpha  occ. eigenvalues --   -0.36920  -0.35194  -0.33872  -0.33667  -0.32239
 Alpha  occ. eigenvalues --   -0.28269  -0.25059  -0.24497  -0.23864
 Alpha virt. eigenvalues --   -0.00510  -0.00041   0.00680   0.06906   0.09089
 Alpha virt. eigenvalues --    0.10443   0.11986   0.13030   0.14587   0.15994
 Alpha virt. eigenvalues --    0.16184   0.16516   0.18726   0.19398   0.20554

 Mulliken charges:
               1
     1  C   -0.072050
     2  H    0.144526
     3  N   -0.724583
     4  H    0.311450
     5  H    0.314725
     6  C    0.616618
     7  O   -0.463900
     8  O   -0.580800
     9  H    0.411254
    10  C   -0.333570
    11  H    0.173133
    12  H    0.164397
    13  C    0.152498
    14  C   -0.187262
    15  C   -0.186599
    16  C   -0.126588
    17  H    0.131354
    18  C   -0.129071
    19  H    0.124794
    20  C   -0.130995
    21  H    0.131188
    22  H    0.129733
    23  H    0.129748
 Sum of Mulliken charges =  -0.00000

 Dipole moment (field-independent basis, Debye):
    X=             -0.4466    Y=             -2.1414    Z=              0.3098  Tot=              2.2093
 Quadrupole moment (field-independent basis, Debye-Ang):
   XX=            -60.6816   YY=            -68.2093   ZZ=            -73.1755
   XY=             -4.7067   XZ=              0.1488   YZ=              2.7083

 Normal termination of Gaussian 16 at Fri Feb 21 15:16:05 2025.
