 Gaussian 16, Revision C.02,
 Gaussian 16:  ES64L-G16RevC.02  7-Dec-2021

 -----------------------------
 # td=(nstat=3) b3lyp/6-31g(d)
 -----------------------------

 -----------
 phe | No.10
 -----------
 Symbolic Z-matrix:
 Charge =  0 Multiplicity = 1

                         Standard orientation:
 ---------------------------------------------------------------------
 Center     Atomic      Atomic             Coordinates (Angstroms)
 Number     Number       Type             X           Y           Z
 ---------------------------------------------------------------------
      1          6           0        1.434695   -0.329482   -0.040639
      2          1           0        1.202763   -0.804304   -1.014650
      3          7           0        1.516031   -1.281382    1.074559
      4          1           0        0.599419   -1.690398    1.240991
      5          1           0        2.155143   -2.038737    0.844927
      6          6           0        2.809770    0.304998   -0.240396
      7          8           0        3.042553    1.479127   -0.416526
      8          8           0        3.785552   -0.637960   -0.248754
      9          1           0        4.624361   -0.158975   -0.386349
     10          6           0        0.382693    0.746181    0.238868
     11          1           0        0.581936    1.594439   -0.425460
     12          1           0        0.550607    1.116095    1.258466
     13          6           0       -1.070940    0.325322    0.080777
     14          6           0       -2.069233    1.281904    0.327702
     15          6           0       -1.476545   -0.949436   -0.334283
     16          6           0       -3.419399    0.975396    0.177926
     17          1           0       -1.776911    2.281393    0.643244
     18          6           0       -2.831076   -1.262919   -0.485652
     19          1           0       -0.738380   -1.717175   -0.550195
     20          6           0       -3.808036   -0.303692   -0.229760
     21          1           0       -4.170067    1.735971    0.376862
     22          1           0       -3.116900   -2.261109   -0.807438
     23          1           0       -4.860604   -0.546490   -0.347332
 ---------------------------------------------------------------------

 SCF Done:  E(RB3LYP) =  -554.782362529     A.U. after   14 cycles

 Excitation energies and oscillator strengths:

 Excited State   1:      Singlet-A      5.3928 eV  229.91 nm  f=0.0040  <S**2>=0.000
      42 -> 45         0.25714
      42 -> 46         0.21728
      42 -> 47        -0.13918
      43 -> 46         0.36062
      44 -> 45         0.45703
      44 -> 46        -0.12771
 This state for optimization and/or second-order correction.
 Total Energy, E(TD-HF/TD-DFT) =  -554.584180099
 Copying the excited state density for this state as the 1-particle RhoCI density.

 Excited State   2:      Singlet-A      5.4706 eV  226.64 nm  f=0.0017  <S**2>=0.000
      41 -> 47        -0.22103
      42 -> 46        -0.14298
      42 -> 47        -0.13528
      43 -> 45         0.10821
      43 -> 46         0.15134
      43 -> 47         0.36457
      44 -> 46         0.27448
      44 -> 47         0.38015

 Excited State   3:      Singlet-A      5.8554 eV  211.74 nm  f=0.0082  <S**2>=0.000
      42 -> 45        -0.23494
      43 -> 45         0.49095
      43 -> 46        -0.19767
      44 -> 45         0.31959
      44 -> 46        -0.23547

 The electronic state is 1-A.
 Alpha  occ. eigenvalues --  -19.20120 -19.14425 -14.32111 -10.32278 -10.23494
 Alpha  occ. eigenvalues --  -10.20033 -10.19120 -10.19045 -10.19024 -10.18974
 Alpha  occ. eigenvalues --  -10.18841 -10.18704  -1.10960  -1.01908  -0.89720
 Alpha  occ. eigenvalues --   -0.85322  -0.77793  -0.74371  -0.72851  -0.67207
 Alpha  occ. eigenvalues --   -0.61089  -0.59653  -0.56682  -0.51905  -0.50563
 Alpha  occ. eigenvalues --   -0.49149  -0.48679  -0.46363  -0.45214  -0.44613
 Alpha  occ. eigenvalues --   -0.42625  -0.41860  -0.41230  -0.39269  -0.38782
 Alpha  occ. eigenvalues --   -0.36945  -0.35099  -0.33886  -0.33579  -0.32309
 Alpha  occ. eigenvalues --   -0.28348  -0.25211  -0.24338  -0.23850
 Alpha virt. eigenvalues --   -0.00372   0.00019   0.00698   0.06683   0.09131
 Alpha virt. eigenvalues --    0.10630   0.12642   0.13181   0.14120   0.15800
 Alpha virt. eigenvalues --    0.15870   0.16612   0.18300   0.19483   0.20261

 Mulliken charges:
               1
     1  C   -0.075467
     2  H    0.147849
     3  N   -0.727576
     4  H    0.310688
     5  H    0.315202
     6  C    0.617534
     7  O   -0.464277
     8  O   -0.580628
     9  H    0.412107
    10  C   -0.344702
    11  H    0.181365
    12  H    0.174102
    13  C    0.160636
    14  C   -0.176590
    15  C   -0.193257
    16  C   -0.128148
    17  H    0.127844
    18  C   -0.134949
    19  H    0.119151
    20  C   -0.129576
    21  H    0.130894
    22  H    0.128748
    23  H    0.129052
 Sum of Mulliken charges =  -0.00000

 Dipole moment (field-independent basis, Debye):
    X=             -0.3353    Y=             -1.8869    Z=             -0.7052  Tot=              2.0421
 Quadrupole moment (field-independent basis, Debye-Ang):
   XX=            -60.4122   YY=            -67.7692   ZZ=            -73.9100
   XY=             -4.7991   XZ=             -2.2340   YZ=              2.5901

 Normal termination of Gaussian 16 at Fri Feb 21 15:15:36 2025.
