 Gaussian 16, Revision C.02,
 Gaussian 16:  ES64L-G16RevC.02  7-Dec-2021

 -----------------------------
 # td=(nstat=3) b3lyp/6-31g(d)
 -----------------------------

 -----------
 phe | No.11
 -----------
 Symbolic Z-matrix:
 Charge =  0 Multiplicity = 1

                         Standard orientation:
 ---------------------------------------------------------------------
 Center     Atomic      Atomic             Coordinates (Angstroms)
 Number     Number       Type             X           Y           Z
 ---------------------------------------------------------------------
      1          6           0        1.433767   -0.334915   -0.028673
      2          1           0        1.158597   -0.746614   -1.019631
      3          7           0        1.591247   -1.360243    1.012111
      4          1           0        0.691284   -1.791382    1.209128
      5          1           0        2.221778   -2.092299    0.693696
      6          6           0        2.788292    0.337128   -0.251420
      7          8           0        2.996208    1.524461   -0.355291
      8          8           0        3.774894   -0.585964   -0.376032
      9          1           0        4.598990   -0.084362   -0.521513
     10          6           0        0.377268    0.696805    0.377751
     11          1           0        0.585212    1.626167   -0.162597
     12          1           0        0.534374    0.925087    1.440630
     13          6           0       -1.073978    0.305478    0.142961
     14          6           0       -2.062142    1.291253    0.297523
     15          6           0       -1.485846   -0.976737   -0.242216
     16          6           0       -3.409663    1.004975    0.092105
     17          1           0       -1.764451    2.297858    0.583976
     18          6           0       -2.836950   -1.269300   -0.452134
     19          1           0       -0.754161   -1.766434   -0.390814
     20          6           0       -3.804780   -0.281569   -0.284034
     21          1           0       -4.152541    1.788243    0.219339
     22          1           0       -3.127454   -2.273410   -0.750454
     23          1           0       -4.854965   -0.507833   -0.447134
 ---------------------------------------------------------------------

 SCF Done:  E(RB3LYP) =  -554.781896568     A.U. after   14 cycles

 Excitation energies and oscillator strengths:

 Excited State   1:      Singlet-A      5.3947 eV  229.83 nm  f=0.0039  <S**2>=0.000
      42 -> 45         0.23969
      42 -> 46         0.23540
      42 -> 47        -0.13375
      43 -> 46         0.35078
      44 -> 45         0.46958
      44 -> 46        -0.13977
 This state for optimization and/or second-order correction.
 Total Energy, E(TD-HF/TD-DFT) =  -554.583646220
 Copying the excited state density for this state as the 1-particle RhoCI density.

 Excited State   2:      Singlet-A      5.4836 eV  226.10 nm  f=0.0020  <S**2>=0.000
      41 -> 47        -0.23285
      42 -> 45        -0.11566
      42 -> 46        -0.12766
      42 -> 47        -0.15456
      43 -> 45         0.14549
      43 -> 47         0.39119
      44 -> 46         0.20370
      44 -> 47         0.39124

 Excited State   3:      Singlet-A      5.8824 eV  210.77 nm  f=0.0044  <S**2>=0.000
      42 -> 45        -0.17156
      43 -> 45         0.46086
      43 -> 46        -0.26491
      44 -> 45         0.22347
      44 -> 46        -0.36099

 The electronic state is 1-A.
 Alpha  occ. eigenvalues --  -19.20123 -19.14440 -14.32220 -10.32279 -10.23510
 Alpha  occ. eigenvalues --  -10.19999 -10.19100 -10.19027 -10.18998 -10.18935
 Alpha  occ. eigenvalues --  -10.18821 -10.18683  -1.10971  -1.01916  -0.89750
 Alpha  occ. eigenvalues --   -0.85308  -0.77791  -0.74348  -0.72820  -0.67213
 Alpha  occ. eigenvalues --   -0.61049  -0.59642  -0.56736  -0.51892  -0.50618
 Alpha  occ. eigenvalues --   -0.49062  -0.48712  -0.46476  -0.45166  -0.44518
 Alpha  occ. eigenvalues --   -0.42768  -0.41895  -0.41188  -0.39146  -0.38839
 Alpha  occ. eigenvalues --   -0.36892  -0.35071  -0.33865  -0.33573  -0.32320
 Alpha  occ. eigenvalues --   -0.28376  -0.25184  -0.24376  -0.23855
 Alpha virt. eigenvalues --   -0.00344   0.00072   0.00676   0.06637   0.09035
 Alpha virt. eigenvalues --    0.10655   0.12807   0.13138   0.14024   0.15620
 Alpha virt. eigenvalues --    0.15834   0.16704   0.18318   0.19357   0.20345

 Mulliken charges:
               1
     1  C   -0.070053
     2  H    0.149769
     3  N   -0.728989
     4  H    0.311015
     5  H    0.315438
     6  C    0.614324
     7  O   -0.463394
     8  O   -0.579387
     9  H    0.412261
    10  C   -0.353242
    11  H    0.182550
    12  H    0.175993
    13  C    0.163513
    14  C   -0.178570
    15  C   -0.191121
    16  C   -0.127608
    17  H    0.127852
    18  C   -0.134302
    19  H    0.115547
    20  C   -0.129837
    21  H    0.130737
    22  H    0.128556
    23  H    0.128946
 Sum of Mulliken charges =  -0.00000

 Dipole moment (field-independent basis, Debye):
    X=             -0.3247    Y=             -1.8482    Z=             -0.8013  Tot=              2.0404
 Quadrupole moment (field-independent basis, Debye-Ang):
   XX=            -60.6687   YY=            -67.7615   ZZ=            -73.7389
   XY=             -4.5214   XZ=             -2.6133   YZ=              2.3235

 Normal termination of Gaussian 16 at Fri Feb 21 15:16:43 2025.
