 Gaussian 16, Revision C.02,
 Gaussian 16:  ES64L-G16RevC.02  7-Dec-2021

 -----------------------------
 # td=(nstat=3) b3lyp/6-31g(d)
 -----------------------------

 ----------
 phe | No.3
 ----------
 Symbolic Z-matrix:
 Charge =  0 Multiplicity = 1

                         Standard orientation:
 ---------------------------------------------------------------------
 Center     Atomic      Atomic             Coordinates (Angstroms)
 Number     Number       Type             X           Y           Z
 ---------------------------------------------------------------------
      1          6           0       -1.381270    0.012619   -0.325151
      2          1           0       -1.176569   -0.767905   -1.085203
      3          7           0       -1.253511    1.376377   -0.846931
      4          1           0       -0.297649    1.513370   -1.171430
      5          1           0       -1.866795    1.499057   -1.649452
      6          6           0       -2.823428   -0.228381    0.110414
      7          8           0       -3.182669   -0.763482    1.134324
      8          8           0       -3.701397    0.195115   -0.834700
      9          1           0       -4.591255   -0.000833   -0.485460
     10          6           0       -0.415650   -0.200784    0.853792
     11          1           0       -0.646168   -1.168730    1.311292
     12          1           0       -0.623549    0.567378    1.605219
     13          6           0        1.039431   -0.148159    0.433980
     14          6           0        1.861272    0.921711    0.812269
     15          6           0        1.602536   -1.177744   -0.336278
     16          6           0        3.203165    0.968978    0.426973
     17          1           0        1.443256    1.724519    1.414927
     18          6           0        2.941154   -1.134195   -0.724450
     19          1           0        0.987657   -2.027593   -0.626169
     20          6           0        3.747170   -0.058361   -0.344010
     21          1           0        3.822588    1.808037    0.733191
     22          1           0        3.357779   -1.943972   -1.317992
     23          1           0        4.791525   -0.025133   -0.642627
 ---------------------------------------------------------------------

 SCF Done:  E(RB3LYP) =  -554.786238958     A.U. after   14 cycles

 Excitation energies and oscillator strengths:

 Excited State   1:      Singlet-A      5.4092 eV  229.21 nm  f=0.0029  <S**2>=0.000
      42 -> 45         0.32630
      42 -> 46         0.28771
      43 -> 45        -0.16179
      43 -> 46         0.28840
      43 -> 47        -0.11935
      44 -> 45         0.37403
      44 -> 46        -0.20779
 This state for optimization and/or second-order correction.
 Total Energy, E(TD-HF/TD-DFT) =  -554.587455797
 Copying the excited state density for this state as the 1-particle RhoCI density.

 Excited State   2:      Singlet-A      5.4553 eV  227.27 nm  f=0.0022  <S**2>=0.000
      41 -> 47         0.23416
      42 -> 45         0.10504
      43 -> 45        -0.23253
      43 -> 46         0.15035
      43 -> 47         0.29972
      44 -> 45        -0.17848
      44 -> 47         0.46723

 Excited State   3:      Singlet-A      5.7154 eV  216.93 nm  f=0.0091  <S**2>=0.000
      42 -> 45        -0.15413
      43 -> 45         0.27356
      43 -> 47         0.14479
      44 -> 45         0.48333
      44 -> 46         0.32263
      44 -> 47         0.15081

 The electronic state is 1-A.
 Alpha  occ. eigenvalues --  -19.20074 -19.14353 -14.31786 -10.32195 -10.23376
 Alpha  occ. eigenvalues --  -10.19756 -10.19164 -10.19079 -10.18991 -10.18983
 Alpha  occ. eigenvalues --  -10.18850 -10.18795  -1.10878  -1.01833  -0.89534
 Alpha  occ. eigenvalues --   -0.85342  -0.77715  -0.74388  -0.72661  -0.67101
 Alpha  occ. eigenvalues --   -0.60644  -0.59784  -0.56783  -0.51521  -0.50483
 Alpha  occ. eigenvalues --   -0.49348  -0.48584  -0.45997  -0.45261  -0.44903
 Alpha  occ. eigenvalues --   -0.42159  -0.41734  -0.41186  -0.39034  -0.38391
 Alpha  occ. eigenvalues --   -0.36919  -0.35221  -0.33825  -0.33704  -0.32230
 Alpha  occ. eigenvalues --   -0.28248  -0.25089  -0.24516  -0.23877
 Alpha virt. eigenvalues --   -0.00512  -0.00053   0.00662   0.06951   0.09158
 Alpha virt. eigenvalues --    0.10629   0.12265   0.13006   0.14558   0.15995
 Alpha virt. eigenvalues --    0.16281   0.16580   0.18639   0.19186   0.19999

 Mulliken charges:
               1
     1  C   -0.064789
     2  H    0.145397
     3  N   -0.728410
     4  H    0.311439
     5  H    0.315518
     6  C    0.614403
     7  O   -0.464035
     8  O   -0.580021
     9  H    0.411137
    10  C   -0.336015
    11  H    0.169596
    12  H    0.163433
    13  C    0.146857
    14  C   -0.187158
    15  C   -0.181391
    16  C   -0.127669
    17  H    0.135011
    18  C   -0.128621
    19  H    0.125081
    20  C   -0.131003
    21  H    0.131256
    22  H    0.130156
    23  H    0.129826
 Sum of Mulliken charges =  -0.00000

 Dipole moment (field-independent basis, Debye):
    X=              0.4994    Y=             -0.0582    Z=             -2.1980  Tot=              2.2547
 Quadrupole moment (field-independent basis, Debye-Ang):
   XX=            -61.1961   YY=            -69.9494   ZZ=            -71.1595
   XY=              0.4966   XZ=              4.1412   YZ=              3.0527

 Normal termination of Gaussian 16 at Fri Feb 21 15:15:36 2025.
