 Gaussian 16, Revision C.02,
 Gaussian 16:  ES64L-G16RevC.02  7-Dec-2021

 -----------------------------
 # td=(nstat=3) b3lyp/6-31g(d)
 -----------------------------

 -----------
 phe | No.18
 -----------
 Symbolic Z-matrix:
 Charge =  0 Multiplicity = 1

                         Standard orientation:
 ---------------------------------------------------------------------
 Center     Atomic      Atomic             Coordinates (Angstroms)
 Number     Number       Type             X           Y           Z
 ---------------------------------------------------------------------
      1          6           0       -1.389175    0.124439   -0.327052
      2          1           0       -1.194480   -0.297470   -1.333763
      3          7           0       -1.270811    1.585043   -0.286100
      4          1           0       -0.358150    1.848937   -0.652262
      5          1           0       -1.970133    2.000543   -0.897544
      6          6           0       -2.824115   -0.284173   -0.005543
      7          8           0       -3.162258   -1.215724    0.688352
      8          8           0       -3.723331    0.504850   -0.648538
      9          1           0       -4.604905    0.166552   -0.402457
     10          6           0       -0.414899   -0.545973    0.662711
     11          1           0       -0.626697   -1.618857    0.671449
     12          1           0       -0.646253   -0.163706    1.663162
     13          6           0        1.042858   -0.301947    0.331837
     14          6           0        1.797482   -1.279659   -0.331370
     15          6           0        1.681536    0.893205    0.699309
     16          6           0        3.141500   -1.065158   -0.640432
     17          1           0        1.325690   -2.220811   -0.606033
     18          6           0        3.025252    1.111851    0.390920
     19          1           0        1.119180    1.650299    1.240118
     20          6           0        3.759661    0.134030   -0.282557
     21          1           0        3.707236   -1.838345   -1.153990
     22          1           0        3.500958    2.043537    0.686540
     23          1           0        4.807339    0.301317   -0.517976
 ---------------------------------------------------------------------

 SCF Done:  E(RB3LYP) =  -554.786224862     A.U. after   14 cycles

 Excitation energies and oscillator strengths:

 Excited State   1:      Singlet-A      5.4086 eV  229.23 nm  f=0.0009  <S**2>=0.000
      42 -> 45         0.23968
      42 -> 46         0.35255
      43 -> 45         0.31046
      44 -> 45        -0.31617
      44 -> 46         0.34210
 This state for optimization and/or second-order correction.
 Total Energy, E(TD-HF/TD-DFT) =  -554.587461963
 Copying the excited state density for this state as the 1-particle RhoCI density.

 Excited State   2:      Singlet-A      5.5303 eV  224.19 nm  f=0.0025  <S**2>=0.000
      41 -> 47         0.27762
      42 -> 47        -0.13461
      43 -> 47         0.42738
      44 -> 47         0.45949

 Excited State   3:      Singlet-A      5.7809 eV  214.47 nm  f=0.0095  <S**2>=0.000
      43 -> 45         0.38122
      44 -> 45         0.51333
      44 -> 46         0.26539

 The electronic state is 1-A.
 Alpha  occ. eigenvalues --  -19.20263 -19.14473 -14.31909 -10.32363 -10.23475
 Alpha  occ. eigenvalues --  -10.19627 -10.19001 -10.18987 -10.18873 -10.18800
 Alpha  occ. eigenvalues --  -10.18726 -10.18654  -1.11048  -1.01982  -0.89629
 Alpha  occ. eigenvalues --   -0.85196  -0.77636  -0.74234  -0.72734  -0.67014
 Alpha  occ. eigenvalues --   -0.60367  -0.59909  -0.56846  -0.51561  -0.50350
 Alpha  occ. eigenvalues --   -0.49421  -0.48753  -0.46176  -0.45195  -0.44327
 Alpha  occ. eigenvalues --   -0.42414  -0.41726  -0.41090  -0.39123  -0.38339
 Alpha  occ. eigenvalues --   -0.36884  -0.35178  -0.33713  -0.33532  -0.32383
 Alpha  occ. eigenvalues --   -0.28168  -0.24973  -0.24662  -0.23879
 Alpha virt. eigenvalues --   -0.00221  -0.00081   0.00402   0.06786   0.09392
 Alpha virt. eigenvalues --    0.11006   0.12610   0.13579   0.14622   0.16032
 Alpha virt. eigenvalues --    0.16474   0.16709   0.18125   0.19144   0.19837

 Mulliken charges:
               1
     1  C   -0.063021
     2  H    0.148784
     3  N   -0.732127
     4  H    0.310588
     5  H    0.318666
     6  C    0.611713
     7  O   -0.463202
     8  O   -0.581306
     9  H    0.411965
    10  C   -0.334619
    11  H    0.164159
    12  H    0.165193
    13  C    0.147565
    14  C   -0.184760
    15  C   -0.194438
    16  C   -0.127258
    17  H    0.125932
    18  C   -0.129568
    19  H    0.146625
    20  C   -0.130354
    21  H    0.129848
    22  H    0.130459
    23  H    0.129156
 Sum of Mulliken charges =  -0.00000

 Dipole moment (field-independent basis, Debye):
    X=              0.2159    Y=              0.8464    Z=             -2.0508  Tot=              2.2290
 Quadrupole moment (field-independent basis, Debye-Ang):
   XX=            -60.6073   YY=            -69.8059   ZZ=            -71.3228
   XY=             -2.1850   XZ=              3.0994   YZ=              1.8673

 Normal termination of Gaussian 16 at Fri Feb 21 15:16:19 2025.
