 Gaussian 16, Revision C.02,
 Gaussian 16:  ES64L-G16RevC.02  7-Dec-2021

 -----------------------------
 # td=(nstat=3) b3lyp/6-31g(d)
 -----------------------------

 -----------
 phe | No.19
 -----------
 Symbolic Z-matrix:
 Charge =  0 Multiplicity = 1

                         Standard orientation:
 ---------------------------------------------------------------------
 Center     Atomic      Atomic             Coordinates (Angstroms)
 Number     Number       Type             X           Y           Z
 ---------------------------------------------------------------------
      1          6           0       -1.375642    0.099769   -0.320518
      2          1           0       -1.167384   -0.408514   -1.283646
      3          7           0       -1.243449    1.557355   -0.397587
      4          1           0       -0.305544    1.783426   -0.723786
      5          1           0       -1.898244    1.925521   -1.083945
      6          6           0       -2.819357   -0.265713    0.012156
      7          8           0       -3.179035   -1.118014    0.791861
      8          8           0       -3.698175    0.458663   -0.727461
      9          1           0       -4.587660    0.155246   -0.464897
     10          6           0       -0.419151   -0.482800    0.738505
     11          1           0       -0.643911   -1.547700    0.849649
     12          1           0       -0.648388   -0.002110    1.695473
     13          6           0        1.039135   -0.285207    0.382678
     14          6           0        1.729133   -1.248362   -0.367586
     15          6           0        1.731407    0.868482    0.780412
     16          6           0        3.066873   -1.063339   -0.718106
     17          1           0        1.212780   -2.156053   -0.673480
     18          6           0        3.070067    1.057592    0.431227
     19          1           0        1.214187    1.619102    1.373216
     20          6           0        3.742082    0.092370   -0.320313
     21          1           0        3.584001   -1.825002   -1.296082
     22          1           0        3.589283    1.956748    0.753031
     23          1           0        4.785418    0.235902   -0.588364
 ---------------------------------------------------------------------

 SCF Done:  E(RB3LYP) =  -554.786613478     A.U. after   14 cycles

 Excitation energies and oscillator strengths:

 Excited State   1:      Singlet-A      5.4113 eV  229.12 nm  f=0.0011  <S**2>=0.000
      42 -> 45         0.27223
      42 -> 46         0.34248
      43 -> 45        -0.18953
      43 -> 46         0.28678
      44 -> 45         0.39806
      44 -> 46        -0.16399
 This state for optimization and/or second-order correction.
 Total Energy, E(TD-HF/TD-DFT) =  -554.587750238
 Copying the excited state density for this state as the 1-particle RhoCI density.

 Excited State   2:      Singlet-A      5.5029 eV  225.31 nm  f=0.0028  <S**2>=0.000
      41 -> 47         0.26698
      43 -> 47         0.39926
      44 -> 47         0.48809

 Excited State   3:      Singlet-A      5.7628 eV  215.14 nm  f=0.0114  <S**2>=0.000
      42 -> 45        -0.10632
      43 -> 46         0.29183
      44 -> 45         0.21758
      44 -> 46         0.58250

 The electronic state is 1-A.
 Alpha  occ. eigenvalues --  -19.20175 -19.14414 -14.31831 -10.32284 -10.23420
 Alpha  occ. eigenvalues --  -10.19676 -10.19079 -10.19052 -10.18938 -10.18883
 Alpha  occ. eigenvalues --  -10.18753 -10.18741  -1.10967  -1.01910  -0.89576
 Alpha  occ. eigenvalues --   -0.85268  -0.77673  -0.74313  -0.72695  -0.67040
 Alpha  occ. eigenvalues --   -0.60457  -0.59868  -0.56848  -0.51501  -0.50414
 Alpha  occ. eigenvalues --   -0.49397  -0.48679  -0.46115  -0.45252  -0.44533
 Alpha  occ. eigenvalues --   -0.42281  -0.41804  -0.41113  -0.39067  -0.38295
 Alpha  occ. eigenvalues --   -0.36908  -0.35213  -0.33748  -0.33632  -0.32310
 Alpha  occ. eigenvalues --   -0.28196  -0.25048  -0.24590  -0.23888
 Alpha virt. eigenvalues --   -0.00247  -0.00183   0.00494   0.06875   0.09318
 Alpha virt. eigenvalues --    0.10917   0.12612   0.13297   0.14715   0.15886
 Alpha virt. eigenvalues --    0.16468   0.16693   0.18237   0.19156   0.19556

 Mulliken charges:
               1
     1  C   -0.061644
     2  H    0.147498
     3  N   -0.731935
     4  H    0.311356
     5  H    0.317343
     6  C    0.612415
     7  O   -0.463651
     8  O   -0.580534
     9  H    0.411542
    10  C   -0.335181
    11  H    0.165219
    12  H    0.164019
    13  C    0.144723
    14  C   -0.181797
    15  C   -0.190181
    16  C   -0.127888
    17  H    0.125662
    18  C   -0.129257
    19  H    0.142272
    20  C   -0.130580
    21  H    0.130121
    22  H    0.130961
    23  H    0.129516
 Sum of Mulliken charges =  -0.00000

 Dipole moment (field-independent basis, Debye):
    X=              0.3664    Y=              0.6595    Z=             -2.1234  Tot=              2.2534
 Quadrupole moment (field-independent basis, Debye-Ang):
   XX=            -61.0581   YY=            -70.0228   ZZ=            -70.9950
   XY=             -1.4952   XZ=              3.4481   YZ=              2.3045

 Normal termination of Gaussian 16 at Fri Feb 21 15:15:48 2025.
