 Gaussian 16, Revision C.02,
 Gaussian 16:  ES64L-G16RevC.02  7-Dec-2021

 -----------------------------
 # td=(nstat=3) b3lyp/6-31g(d)
 -----------------------------

 ----------
 phe | No.8
 ----------
 Symbolic Z-matrix:
 Charge =  0 Multiplicity = 1

                         Standard orientation:
 ---------------------------------------------------------------------
 Center     Atomic      Atomic             Coordinates (Angstroms)
 Number     Number       Type             X           Y           Z
 ---------------------------------------------------------------------
      1          6           0        1.432357   -0.334400   -0.050296
      2          1           0        1.274338   -0.947246   -0.960138
      3          7           0        1.382832   -1.109073    1.194275
      4          1           0        0.447721   -1.494583    1.310241
      5          1           0        2.032999   -1.889952    1.145445
      6          6           0        2.835685    0.241798   -0.218826
      7          8           0        3.114448    1.376863   -0.531042
      8          8           0        3.782178   -0.710012   -0.016909
      9          1           0        4.642642   -0.268215   -0.145160
     10          6           0        0.395107    0.791724   -0.027139
     11          1           0        0.586287    1.443447   -0.888604
     12          1           0        0.581984    1.403111    0.862778
     13          6           0       -1.060378    0.350865   -0.041557
     14          6           0       -2.042051    1.252641    0.397743
     15          6           0       -1.485112   -0.893480   -0.527547
     16          6           0       -3.396067    0.925705    0.357308
     17          1           0       -1.734796    2.224135    0.778967
     18          6           0       -2.841596   -1.228335   -0.565496
     19          1           0       -0.758717   -1.617148   -0.888242
     20          6           0       -3.802978   -0.320822   -0.124196
     21          1           0       -4.134336    1.643447    0.705621
     22          1           0       -3.143124   -2.201726   -0.943996
     23          1           0       -4.857645   -0.580747   -0.153191
 ---------------------------------------------------------------------

 SCF Done:  E(RB3LYP) =  -554.783324480     A.U. after   14 cycles

 Excitation energies and oscillator strengths:

 Excited State   1:      Singlet-A      5.3946 eV  229.83 nm  f=0.0023  <S**2>=0.000
      42 -> 45        -0.15170
      42 -> 46         0.33218
      42 -> 47         0.12705
      43 -> 45        -0.29052
      43 -> 46        -0.27460
      44 -> 45         0.41793
 This state for optimization and/or second-order correction.
 Total Energy, E(TD-HF/TD-DFT) =  -554.585077859
 Copying the excited state density for this state as the 1-particle RhoCI density.

 Excited State   2:      Singlet-A      5.4353 eV  228.11 nm  f=0.0016  <S**2>=0.000
      41 -> 46         0.10733
      41 -> 47        -0.20477
      42 -> 46        -0.14186
      42 -> 47         0.11073
      43 -> 46        -0.18917
      43 -> 47         0.29291
      44 -> 45        -0.14998
      44 -> 46        -0.32640
      44 -> 47         0.39864

 Excited State   3:      Singlet-A      5.8166 eV  213.15 nm  f=0.0055  <S**2>=0.000
      41 -> 47        -0.12754
      42 -> 45         0.13357
      43 -> 45         0.42225
      43 -> 47         0.15741
      44 -> 45         0.44094
      44 -> 46         0.18681
      44 -> 47         0.12483

 The electronic state is 1-A.
 Alpha  occ. eigenvalues --  -19.20108 -19.14405 -14.31917 -10.32264 -10.23457
 Alpha  occ. eigenvalues --  -10.20010 -10.19162 -10.19055 -10.19049 -10.18982
 Alpha  occ. eigenvalues --  -10.18894 -10.18742  -1.10934  -1.01892  -0.89638
 Alpha  occ. eigenvalues --   -0.85335  -0.77760  -0.74395  -0.72847  -0.67183
 Alpha  occ. eigenvalues --   -0.61059  -0.59684  -0.56613  -0.51839  -0.50453
 Alpha  occ. eigenvalues --   -0.49325  -0.48614  -0.46137  -0.45275  -0.44853
 Alpha  occ. eigenvalues --   -0.42363  -0.41708  -0.41263  -0.39312  -0.38720
 Alpha  occ. eigenvalues --   -0.36971  -0.35152  -0.33901  -0.33615  -0.32282
 Alpha  occ. eigenvalues --   -0.28293  -0.25191  -0.24352  -0.23844
 Alpha virt. eigenvalues --   -0.00317  -0.00189   0.00703   0.06767   0.09157
 Alpha virt. eigenvalues --    0.10498   0.12340   0.13200   0.14250   0.15802
 Alpha virt. eigenvalues --    0.16207   0.16702   0.18517   0.19551   0.20009

 Mulliken charges:
               1
     1  C   -0.079493
     2  H    0.145098
     3  N   -0.725378
     4  H    0.311174
     5  H    0.314637
     6  C    0.619629
     7  O   -0.464588
     8  O   -0.581845
     9  H    0.411730
    10  C   -0.331920
    11  H    0.177481
    12  H    0.169234
    13  C    0.157449
    14  C   -0.179244
    15  C   -0.194656
    16  C   -0.127813
    17  H    0.128296
    18  C   -0.132915
    19  H    0.123272
    20  C   -0.129904
    21  H    0.131148
    22  H    0.129211
    23  H    0.129398
 Sum of Mulliken charges =  -0.00000

 Dipole moment (field-independent basis, Debye):
    X=             -0.3559    Y=             -2.0053    Z=             -0.4896  Tot=              2.0947
 Quadrupole moment (field-independent basis, Debye-Ang):
   XX=            -60.1756   YY=            -67.9087   ZZ=            -73.7950
   XY=             -5.0326   XZ=             -1.4471   YZ=              2.8777

 Normal termination of Gaussian 16 at Fri Feb 21 15:16:33 2025.
