 Gaussian 16, Revision C.02,
 Gaussian 16:  ES64L-G16RevC.02  7-Dec-2021

 -----------------------------
 # td=(nstat=3) b3lyp/6-31g(d)
 -----------------------------

 ----------
 phe | No.7
 ----------
 Symbolic Z-matrix:
 Charge =  0 Multiplicity = 1

                         Standard orientation:
 ---------------------------------------------------------------------
 Center     Atomic      Atomic             Coordinates (Angstroms)
 Number     Number       Type             X           Y           Z
 ---------------------------------------------------------------------
      1          6           0        1.427652   -0.339988   -0.035381
      2          1           0        1.287197   -1.032556   -0.888925
      3          7           0        1.335394   -0.998659    1.271662
      4          1           0        0.395518   -1.373431    1.386644
      5          1           0        1.983769   -1.781564    1.313006
      6          6           0        2.840303    0.207679   -0.217512
      7          8           0        3.138099    1.310170   -0.616677
      8          8           0        3.771925   -0.731639    0.087178
      9          1           0        4.639749   -0.309168   -0.055879
     10          6           0        0.400778    0.793068   -0.139997
     11          1           0        0.594052    1.338558   -1.072172
     12          1           0        0.594235    1.500282    0.673421
     13          6           0       -1.054690    0.356474   -0.096622
     14          6           0       -2.014253    1.228711    0.438299
     15          6           0       -1.500469   -0.862536   -0.628205
     16          6           0       -3.368797    0.898024    0.446701
     17          1           0       -1.690249    2.179108    0.856538
     18          6           0       -2.855649   -1.201142   -0.616974
     19          1           0       -0.790031   -1.559924   -1.065101
     20          6           0       -3.796081   -0.322334   -0.080124
     21          1           0       -4.090303    1.592438    0.869435
     22          1           0       -3.174276   -2.153768   -1.032522
     23          1           0       -4.850371   -0.585338   -0.071203
 ---------------------------------------------------------------------

 SCF Done:  E(RB3LYP) =  -554.783829096     A.U. after   14 cycles

 Excitation energies and oscillator strengths:

 Excited State   1:      Singlet-A      5.3991 eV  229.64 nm  f=0.0017  <S**2>=0.000
      42 -> 45         0.12924
      42 -> 46        -0.37953
      43 -> 45         0.37968
      43 -> 47        -0.10674
      44 -> 45         0.31331
      44 -> 46         0.27330
 This state for optimization and/or second-order correction.
 Total Energy, E(TD-HF/TD-DFT) =  -554.585417329
 Copying the excited state density for this state as the 1-particle RhoCI density.

 Excited State   2:      Singlet-A      5.4238 eV  228.59 nm  f=0.0016  <S**2>=0.000
      41 -> 47        -0.20563
      42 -> 47         0.11475
      43 -> 45        -0.22963
      43 -> 47        -0.26838
      44 -> 45         0.30481
      44 -> 46        -0.17209
      44 -> 47         0.41301

 Excited State   3:      Singlet-A      5.7891 eV  214.17 nm  f=0.0013  <S**2>=0.000
      41 -> 45         0.10753
      41 -> 47         0.17682
      43 -> 45        -0.19015
      43 -> 47         0.24208
      44 -> 45         0.45164
      44 -> 46        -0.27108
      44 -> 47        -0.26078

 The electronic state is 1-A.
 Alpha  occ. eigenvalues --  -19.20099 -19.14396 -14.31857 -10.32249 -10.23437
 Alpha  occ. eigenvalues --  -10.19961 -10.19172 -10.19049 -10.19044 -10.18954
 Alpha  occ. eigenvalues --  -10.18918 -10.18759  -1.10919  -1.01881  -0.89598
 Alpha  occ. eigenvalues --   -0.85335  -0.77735  -0.74393  -0.72813  -0.67169
 Alpha  occ. eigenvalues --   -0.60994  -0.59697  -0.56608  -0.51773  -0.50430
 Alpha  occ. eigenvalues --   -0.49374  -0.48586  -0.46037  -0.45266  -0.44971
 Alpha  occ. eigenvalues --   -0.42275  -0.41629  -0.41269  -0.39226  -0.38709
 Alpha  occ. eigenvalues --   -0.36950  -0.35171  -0.33896  -0.33633  -0.32266
 Alpha  occ. eigenvalues --   -0.28276  -0.25147  -0.24400  -0.23844
 Alpha virt. eigenvalues --   -0.00364  -0.00169   0.00682   0.06813   0.09127
 Alpha virt. eigenvalues --    0.10437   0.12196   0.13157   0.14348   0.15845
 Alpha virt. eigenvalues --    0.16342   0.16606   0.18653   0.19511   0.20033

 Mulliken charges:
               1
     1  C   -0.078336
     2  H    0.144532
     3  N   -0.724302
     4  H    0.311484
     5  H    0.314438
     6  C    0.618985
     7  O   -0.464309
     8  O   -0.581735
     9  H    0.411545
    10  C   -0.329977
    11  H    0.175493
    12  H    0.167193
    13  C    0.156156
    14  C   -0.182356
    15  C   -0.192984
    16  C   -0.127216
    17  H    0.128966
    18  C   -0.131223
    19  H    0.123805
    20  C   -0.130322
    21  H    0.131207
    22  H    0.129400
    23  H    0.129556
 Sum of Mulliken charges =  -0.00000

 Dipole moment (field-independent basis, Debye):
    X=             -0.3733    Y=             -2.0751    Z=             -0.3214  Tot=              2.1327
 Quadrupole moment (field-independent basis, Debye-Ang):
   XX=            -60.2339   YY=            -68.0727   ZZ=            -73.5347
   XY=             -5.0009   XZ=             -1.0337   YZ=              2.9605

 Normal termination of Gaussian 16 at Fri Feb 21 15:16:24 2025.
