 Gaussian 16, Revision C.02,
 Gaussian 16:  ES64L-G16RevC.02  7-Dec-2021

 -----------------------------
 # td=(nstat=3) b3lyp/6-31g(d)
 -----------------------------

 -----------
 phe | No.14
 -----------
 Symbolic Z-matrix:
 Charge =  0 Multiplicity = 1

                         Standard orientation:
 ---------------------------------------------------------------------
 Center     Atomic      Atomic             Coordinates (Angstroms)
 Number     Number       Type             X           Y           Z
 ---------------------------------------------------------------------
      1          6           0       -1.427921    0.382730   -0.021370
      2          1           0       -1.043753    0.591549   -1.038023
      3          7           0       -1.790463    1.597688    0.725727
      4          1           0       -0.956224    2.149240    0.911651
      5          1           0       -2.418188    2.173900    0.169252
      6          6           0       -2.704589   -0.430394   -0.245947
      7          8           0       -2.844587   -1.620472   -0.079964
      8          8           0       -3.702012    0.356609   -0.722891
      9          1           0       -4.473677   -0.227477   -0.846297
     10          6           0       -0.370460   -0.440485    0.738554
     11          1           0       -0.609027   -1.500428    0.615793
     12          1           0       -0.499258   -0.220500    1.807599
     13          6           0        1.070581   -0.209214    0.317931
     14          6           0        1.945236   -1.301774    0.231621
     15          6           0        1.579802    1.061529    0.012539
     16          6           0        3.281935   -1.133645   -0.130978
     17          1           0        1.570126   -2.298642    0.452000
     18          6           0        2.914428    1.236026   -0.356736
     19          1           0        0.931282    1.933533    0.051703
     20          6           0        3.773156    0.138502   -0.426981
     21          1           0        3.936973   -1.999081   -0.189894
     22          1           0        3.282057    2.232168   -0.589533
     23          1           0        4.812718    0.273164   -0.713296
 ---------------------------------------------------------------------

 SCF Done:  E(RB3LYP) =  -554.780757697     A.U. after   14 cycles

 Excitation energies and oscillator strengths:

 Excited State   1:      Singlet-A      5.4093 eV  229.21 nm  f=0.0014  <S**2>=0.000
      42 -> 46         0.36429
      42 -> 47         0.12872
      43 -> 45        -0.20611
      43 -> 46         0.19295
      43 -> 47        -0.11210
      44 -> 45         0.47653
      44 -> 46         0.14936
 This state for optimization and/or second-order correction.
 Total Energy, E(TD-HF/TD-DFT) =  -554.581969515
 Copying the excited state density for this state as the 1-particle RhoCI density.

 Excited State   2:      Singlet-A      5.4958 eV  225.60 nm  f=0.0030  <S**2>=0.000
      41 -> 47         0.22064
      42 -> 46         0.18280
      42 -> 47        -0.10636
      43 -> 45        -0.29456
      43 -> 46        -0.10471
      43 -> 47         0.33442
      44 -> 46        -0.12104
      44 -> 47         0.39050

 Excited State   3:      Singlet-A      5.8921 eV  210.42 nm  f=0.0019  <S**2>=0.000
      42 -> 46         0.10554
      43 -> 45         0.40295
      43 -> 46        -0.23651
      44 -> 45         0.32482
      44 -> 46        -0.38680

 The electronic state is 1-A.
 Alpha  occ. eigenvalues --  -19.20150 -19.14488 -14.32386 -10.32286 -10.23512
 Alpha  occ. eigenvalues --  -10.19802 -10.19080 -10.19007 -10.18926 -10.18816
 Alpha  occ. eigenvalues --  -10.18738 -10.18649  -1.10997  -1.01944  -0.89734
 Alpha  occ. eigenvalues --   -0.85278  -0.77728  -0.74294  -0.72657  -0.67197
 Alpha  occ. eigenvalues --   -0.60782  -0.59671  -0.56917  -0.51701  -0.50703
 Alpha  occ. eigenvalues --   -0.48889  -0.48814  -0.46654  -0.45046  -0.44414
 Alpha  occ. eigenvalues --   -0.42949  -0.41887  -0.40972  -0.39093  -0.38694
 Alpha  occ. eigenvalues --   -0.36617  -0.35048  -0.33783  -0.33572  -0.32353
 Alpha  occ. eigenvalues --   -0.28372  -0.25011  -0.24542  -0.23952
 Alpha virt. eigenvalues --   -0.00271   0.00016   0.00721   0.06366   0.08319
 Alpha virt. eigenvalues --    0.10551   0.12851   0.13154   0.13813   0.15377
 Alpha virt. eigenvalues --    0.15951   0.17155   0.17792   0.19366   0.21483

 Mulliken charges:
               1
     1  C   -0.051925
     2  H    0.154942
     3  N   -0.734915
     4  H    0.313304
     5  H    0.315846
     6  C    0.603426
     7  O   -0.459821
     8  O   -0.576477
     9  H    0.412517
    10  C   -0.375205
    11  H    0.184657
    12  H    0.175741
    13  C    0.170936
    14  C   -0.190704
    15  C   -0.181475
    16  C   -0.124418
    17  H    0.129874
    18  C   -0.128634
    19  H    0.105920
    20  C   -0.131715
    21  H    0.130459
    22  H    0.128591
    23  H    0.129078
 Sum of Mulliken charges =  -0.00000

 Dipole moment (field-independent basis, Debye):
    X=              0.2973    Y=              1.7022    Z=             -1.2567  Tot=              2.1367
 Quadrupole moment (field-independent basis, Debye-Ang):
   XX=            -61.5630   YY=            -67.5809   ZZ=            -72.9834
   XY=             -3.0244   XZ=              3.4985   YZ=             -1.1681

 Normal termination of Gaussian 16 at Fri Feb 21 15:15:34 2025.
