 Gaussian 16, Revision C.02,
 Gaussian 16:  ES64L-G16RevC.02  7-Dec-2021

 -----------------------------
 # td=(nstat=3) b3lyp/6-31g(d)
 -----------------------------

 ----------
 phe | No.6
 ----------
 Symbolic Z-matrix:
 Charge =  0 Multiplicity = 1

                         Standard orientation:
 ---------------------------------------------------------------------
 Center     Atomic      Atomic             Coordinates (Angstroms)
 Number     Number       Type             X           Y           Z
 ---------------------------------------------------------------------
      1          6           0        1.419407   -0.340518    0.002847
      2          1           0        1.274936   -1.124861   -0.766156
      3          7           0        1.307912   -0.845536    1.375248
      4          1           0        0.364234   -1.201572    1.517306
      5          1           0        1.949927   -1.622955    1.511813
      6          6           0        2.839817    0.166568   -0.228168
      7          8           0        3.153680    1.213473   -0.746823
      8          8           0        3.758052   -0.742659    0.188429
      9          1           0        4.631900   -0.348886    0.005570
     10          6           0        0.404845    0.785081   -0.236972
     11          1           0        0.605418    1.216096   -1.225614
     12          1           0        0.601106    1.578212    0.491550
     13          6           0       -1.050204    0.357401   -0.146480
     14          6           0       -1.983894    1.198864    0.474608
     15          6           0       -1.519400   -0.832751   -0.723285
     16          6           0       -3.337554    0.864694    0.525934
     17          1           0       -1.641412    2.126807    0.926754
     18          6           0       -2.871878   -1.174328   -0.669969
     19          1           0       -0.827481   -1.501184   -1.230248
     20          6           0       -3.787458   -0.326556   -0.045092
     21          1           0       -4.039614    1.534637    1.015578
     22          1           0       -3.209852   -2.103138   -1.122492
     23          1           0       -4.840490   -0.591655   -0.004186
 ---------------------------------------------------------------------

 SCF Done:  E(RB3LYP) =  -554.784400465     A.U. after   14 cycles

 Excitation energies and oscillator strengths:

 Excited State   1:      Singlet-A      5.4022 eV  229.51 nm  f=0.0018  <S**2>=0.000
      42 -> 45         0.23691
      42 -> 46         0.34267
      43 -> 45         0.26257
      43 -> 46        -0.12177
      43 -> 47        -0.16896
      44 -> 45         0.35988
      44 -> 46        -0.26107
 This state for optimization and/or second-order correction.
 Total Energy, E(TD-HF/TD-DFT) =  -554.585874953
 Copying the excited state density for this state as the 1-particle RhoCI density.

 Excited State   2:      Singlet-A      5.4249 eV  228.55 nm  f=0.0014  <S**2>=0.000
      41 -> 47        -0.20285
      42 -> 46        -0.12005
      42 -> 47         0.10547
      43 -> 45        -0.34699
      43 -> 47        -0.24404
      44 -> 45         0.23696
      44 -> 46         0.13345
      44 -> 47         0.41090

 Excited State   3:      Singlet-A      5.7555 eV  215.42 nm  f=0.0025  <S**2>=0.000
      41 -> 45         0.10128
      41 -> 47         0.15276
      43 -> 45        -0.19367
      43 -> 47         0.22929
      44 -> 45         0.46274
      44 -> 46         0.28879
      44 -> 47        -0.25086

 The electronic state is 1-A.
 Alpha  occ. eigenvalues --  -19.20091 -19.14386 -14.31825 -10.32233 -10.23416
 Alpha  occ. eigenvalues --  -10.19898 -10.19173 -10.19045 -10.19031 -10.18938
 Alpha  occ. eigenvalues --  -10.18911 -10.18781  -1.10904  -1.01867  -0.89564
 Alpha  occ. eigenvalues --   -0.85334  -0.77718  -0.74387  -0.72766  -0.67155
 Alpha  occ. eigenvalues --   -0.60908  -0.59709  -0.56628  -0.51702  -0.50437
 Alpha  occ. eigenvalues --   -0.49380  -0.48571  -0.45967  -0.45218  -0.45072
 Alpha  occ. eigenvalues --   -0.42215  -0.41572  -0.41280  -0.39119  -0.38688
 Alpha  occ. eigenvalues --   -0.36929  -0.35183  -0.33885  -0.33649  -0.32253
 Alpha  occ. eigenvalues --   -0.28269  -0.25091  -0.24457  -0.23853
 Alpha virt. eigenvalues --   -0.00445  -0.00092   0.00669   0.06859   0.09098
 Alpha virt. eigenvalues --    0.10414   0.12054   0.13085   0.14499   0.15909
 Alpha virt. eigenvalues --    0.16357   0.16471   0.18728   0.19431   0.20310

 Mulliken charges:
               1
     1  C   -0.075646
     2  H    0.144397
     3  N   -0.723844
     4  H    0.311516
     5  H    0.314495
     6  C    0.617844
     7  O   -0.464010
     8  O   -0.581365
     9  H    0.411393
    10  C   -0.330982
    11  H    0.174083
    12  H    0.165551
    13  C    0.154488
    14  C   -0.185245
    15  C   -0.189982
    16  C   -0.126723
    17  H    0.130005
    18  C   -0.129877
    19  H    0.124209
    20  C   -0.130727
    21  H    0.131205
    22  H    0.129550
    23  H    0.129666
 Sum of Mulliken charges =  -0.00000

 Dipole moment (field-independent basis, Debye):
    X=             -0.4015    Y=             -2.1340    Z=             -0.0771  Tot=              2.1728
 Quadrupole moment (field-independent basis, Debye-Ang):
   XX=            -60.4040   YY=            -68.2528   ZZ=            -73.2458
   XY=             -4.8962   XZ=             -0.5618   YZ=              2.9707

 Normal termination of Gaussian 16 at Fri Feb 21 15:15:08 2025.
