 Gaussian 16, Revision C.02,
 Gaussian 16:  ES64L-G16RevC.02  7-Dec-2021

 -----------------------------
 # td=(nstat=3) b3lyp/6-31g(d)
 -----------------------------

 -----------
 phe | No.13
 -----------
 Symbolic Z-matrix:
 Charge =  0 Multiplicity = 1

                         Standard orientation:
 ---------------------------------------------------------------------
 Center     Atomic      Atomic             Coordinates (Angstroms)
 Number     Number       Type             X           Y           Z
 ---------------------------------------------------------------------
      1          6           0       -1.430207    0.363509   -0.013537
      2          1           0       -1.075630    0.647690   -1.022912
      3          7           0       -1.735837    1.517872    0.845873
      4          1           0       -0.880243    2.022429    1.064458
      5          1           0       -2.356953    2.161679    0.361058
      6          6           0       -2.732099   -0.401626   -0.257944
      7          8           0       -2.891685   -1.598950   -0.190673
      8          8           0       -3.728700    0.442928   -0.624978
      9          1           0       -4.517272   -0.113362   -0.768338
     10          6           0       -0.370747   -0.541202    0.636078
     11          1           0       -0.598823   -1.578068    0.373015
     12          1           0       -0.507404   -0.468055    1.724295
     13          6           0        1.073377   -0.247086    0.264934
     14          6           0        1.999590   -1.300749    0.252323
     15          6           0        1.535843    1.033255   -0.070043
     16          6           0        3.340396   -1.083550   -0.062741
     17          1           0        1.660830   -2.305945    0.493480
     18          6           0        2.876358    1.256431   -0.392079
     19          1           0        0.847269    1.874244   -0.094126
     20          6           0        3.785927    0.199413   -0.386330
     21          1           0        4.035481   -1.919251   -0.064728
     22          1           0        3.206873    2.259497   -0.649481
     23          1           0        4.829187    0.371835   -0.636591
 ---------------------------------------------------------------------

 SCF Done:  E(RB3LYP) =  -554.781059573     A.U. after   14 cycles

 Excitation energies and oscillator strengths:

 Excited State   1:      Singlet-A      5.4026 eV  229.49 nm  f=0.0021  <S**2>=0.000
      42 -> 46        -0.33764
      42 -> 47        -0.12428
      43 -> 45        -0.15379
      43 -> 46        -0.28192
      44 -> 45         0.49916
 This state for optimization and/or second-order correction.
 Total Energy, E(TD-HF/TD-DFT) =  -554.582516303
 Copying the excited state density for this state as the 1-particle RhoCI density.

 Excited State   2:      Singlet-A      5.4939 eV  225.68 nm  f=0.0026  <S**2>=0.000
      41 -> 47         0.23210
      42 -> 45        -0.11985
      42 -> 46         0.14519
      42 -> 47        -0.14942
      43 -> 45         0.24523
      43 -> 47         0.36314
      44 -> 46        -0.10618
      44 -> 47         0.40613

 Excited State   3:      Singlet-A      5.8939 eV  210.36 nm  f=0.0006  <S**2>=0.000
      42 -> 46        -0.11033
      43 -> 45         0.36605
      43 -> 46         0.27901
      44 -> 45         0.23210
      44 -> 46         0.46017

 The electronic state is 1-A.
 Alpha  occ. eigenvalues --  -19.20134 -19.14471 -14.32375 -10.32278 -10.23520
 Alpha  occ. eigenvalues --  -10.19871 -10.19080 -10.19005 -10.18945 -10.18813
 Alpha  occ. eigenvalues --  -10.18810 -10.18655  -1.10984  -1.01931  -0.89759
 Alpha  occ. eigenvalues --   -0.85285  -0.77756  -0.74307  -0.72714  -0.67210
 Alpha  occ. eigenvalues --   -0.60888  -0.59647  -0.56859  -0.51785  -0.50685
 Alpha  occ. eigenvalues --   -0.48923  -0.48784  -0.46637  -0.45078  -0.44425
 Alpha  occ. eigenvalues --   -0.42935  -0.41899  -0.41051  -0.39007  -0.38826
 Alpha  occ. eigenvalues --   -0.36718  -0.35043  -0.33808  -0.33577  -0.32339
 Alpha  occ. eigenvalues --   -0.28394  -0.25079  -0.24494  -0.23898
 Alpha virt. eigenvalues --   -0.00253   0.00024   0.00689   0.06487   0.08609
 Alpha virt. eigenvalues --    0.10597   0.12925   0.13095   0.13867   0.15306
 Alpha virt. eigenvalues --    0.15899   0.17045   0.18188   0.19117   0.21065

 Mulliken charges:
               1
     1  C   -0.056941
     2  H    0.153592
     3  N   -0.732876
     4  H    0.312554
     5  H    0.315699
     6  C    0.606425
     7  O   -0.460860
     8  O   -0.577006
     9  H    0.412455
    10  C   -0.369250
    11  H    0.184125
    12  H    0.176652
    13  C    0.169524
    14  C   -0.186926
    15  C   -0.184793
    16  C   -0.125483
    17  H    0.128755
    18  C   -0.130514
    19  H    0.107971
    20  C   -0.131067
    21  H    0.130520
    22  H    0.128463
    23  H    0.128980
 Sum of Mulliken charges =  -0.00000

 Dipole moment (field-independent basis, Debye):
    X=              0.3077    Y=              1.7729    Z=             -1.0687  Tot=              2.0929
 Quadrupole moment (field-independent basis, Debye-Ang):
   XX=            -61.3099   YY=            -67.6858   ZZ=            -73.1913
   XY=             -3.6331   XZ=              3.2641   YZ=             -1.5736

 Normal termination of Gaussian 16 at Fri Feb 21 15:15:34 2025.
