 Gaussian 16, Revision C.02,
 Gaussian 16:  ES64L-G16RevC.02  7-Dec-2021

 -----------------------------
 # td=(nstat=3) b3lyp/6-31g(d)
 -----------------------------

 -----------
 phe | No.17
 -----------
 Symbolic Z-matrix:
 Charge =  0 Multiplicity = 1

                         Standard orientation:
 ---------------------------------------------------------------------
 Center     Atomic      Atomic             Coordinates (Angstroms)
 Number     Number       Type             X           Y           Z
 ---------------------------------------------------------------------
      1          6           0       -1.408076    0.149676   -0.335026
      2          1           0       -1.234043   -0.193169   -1.374919
      3          7           0       -1.307586    1.606016   -0.194609
      4          1           0       -0.432572    1.914423   -0.613204
      5          1           0       -2.059149    2.048258   -0.719290
      6          6           0       -2.830319   -0.303891   -0.015251
      7          8           0       -3.139751   -1.300406    0.596840
      8          8           0       -3.755874    0.529550   -0.557536
      9          1           0       -4.626391    0.156852   -0.322145
     10          6           0       -0.408674   -0.589427    0.578807
     11          1           0       -0.607764   -1.661354    0.496567
     12          1           0       -0.636355   -0.300857    1.611795
     13          6           0        1.048499   -0.306437    0.272204
     14          6           0        1.859843   -1.301743   -0.289876
     15          6           0        1.643570    0.921847    0.605393
     16          6           0        3.211441   -1.069851   -0.550669
     17          1           0        1.424916   -2.269879   -0.528855
     18          6           0        2.993976    1.158082    0.344350
     19          1           0        1.044241    1.688050    1.089780
     20          6           0        3.782607    0.164506   -0.239080
     21          1           0        3.818933   -1.857108   -0.989769
     22          1           0        3.433565    2.116240    0.609935
     23          1           0        4.835517    0.346716   -0.437174
 ---------------------------------------------------------------------

 SCF Done:  E(RB3LYP) =  -554.785336133     A.U. after   14 cycles

 Excitation energies and oscillator strengths:

 Excited State   1:      Singlet-A      5.4022 eV  229.51 nm  f=0.0010  <S**2>=0.000
      42 -> 45        -0.16987
      42 -> 46        -0.28875
      42 -> 47         0.14260
      43 -> 45         0.33568
      44 -> 45        -0.34083
      44 -> 46         0.34200
      44 -> 47        -0.10394
 This state for optimization and/or second-order correction.
 Total Energy, E(TD-HF/TD-DFT) =  -554.586807737
 Copying the excited state density for this state as the 1-particle RhoCI density.

 Excited State   2:      Singlet-A      5.5578 eV  223.08 nm  f=0.0023  <S**2>=0.000
      41 -> 46         0.11557
      41 -> 47         0.25131
      42 -> 46         0.19233
      42 -> 47         0.21742
      43 -> 46         0.19153
      43 -> 47         0.32700
      44 -> 46         0.20296
      44 -> 47         0.38579

 Excited State   3:      Singlet-A      5.8084 eV  213.46 nm  f=0.0108  <S**2>=0.000
      41 -> 47        -0.14575
      42 -> 45         0.18216
      43 -> 45         0.37319
      44 -> 45         0.46132
      44 -> 46         0.27261

 The electronic state is 1-A.
 Alpha  occ. eigenvalues --  -19.20369 -19.14546 -14.32010 -10.32460 -10.23549
 Alpha  occ. eigenvalues --  -10.19575 -10.18906 -10.18891 -10.18784 -10.18721
 Alpha  occ. eigenvalues --  -10.18697 -10.18529  -1.11147  -1.02071  -0.89695
 Alpha  occ. eigenvalues --   -0.85105  -0.77596  -0.74132  -0.72776  -0.66986
 Alpha  occ. eigenvalues --   -0.60299  -0.59928  -0.56826  -0.51658  -0.50278
 Alpha  occ. eigenvalues --   -0.49444  -0.48837  -0.46223  -0.45112  -0.44119
 Alpha  occ. eigenvalues --   -0.42565  -0.41604  -0.41076  -0.39204  -0.38414
 Alpha  occ. eigenvalues --   -0.36857  -0.35122  -0.33669  -0.33415  -0.32472
 Alpha  occ. eigenvalues --   -0.28142  -0.24893  -0.24738  -0.23839
 Alpha virt. eigenvalues --   -0.00211   0.00005   0.00371   0.06668   0.09453
 Alpha virt. eigenvalues --    0.11034   0.12581   0.13856   0.14430   0.16160
 Alpha virt. eigenvalues --    0.16499   0.16700   0.18111   0.19381   0.20109

 Mulliken charges:
               1
     1  C   -0.065092
     2  H    0.150349
     3  N   -0.731788
     4  H    0.309503
     5  H    0.320256
     6  C    0.610943
     7  O   -0.462589
     8  O   -0.582402
     9  H    0.412504
    10  C   -0.334135
    11  H    0.163494
    12  H    0.166660
    13  C    0.150758
    14  C   -0.188175
    15  C   -0.198576
    16  C   -0.126489
    17  H    0.126008
    18  C   -0.129481
    19  H    0.150631
    20  C   -0.130234
    21  H    0.129443
    22  H    0.129724
    23  H    0.128692
 Sum of Mulliken charges =  -0.00000

 Dipole moment (field-independent basis, Debye):
    X=              0.0210    Y=              1.0015    Z=             -1.9603  Tot=              2.2014
 Quadrupole moment (field-independent basis, Debye-Ang):
   XX=            -60.0268   YY=            -69.6169   ZZ=            -71.6615
   XY=             -2.7884   XZ=              2.7679   YZ=              1.3844

 Normal termination of Gaussian 16 at Fri Feb 21 15:16:42 2025.
