 Gaussian 16, Revision C.02,
 Gaussian 16:  ES64L-G16RevC.02  7-Dec-2021

 ------------------------------
 # td=(nstat=16) b3lyp/6-31g(d)
 ------------------------------

 -------------------
 lactic_acid | No.18
 -------------------
 Symbolic Z-matrix:
 Charge =  0 Multiplicity = 1

                         Standard orientation:
 ---------------------------------------------------------------------
 Center     Atomic      Atomic             Coordinates (Angstroms)
 Number     Number       Type             X           Y           Z
 ---------------------------------------------------------------------
      1          6           0        0.643934   -0.245674    0.362842
      2          1           0        0.606108   -0.703362    1.359837
      3          8           0        0.957352   -1.263929   -0.642155
      4          1           0        1.755097   -1.759283   -0.368020
      5          6           0        1.634760    0.910134    0.322337
      6          1           0        1.380281    1.673421    1.065580
      7          1           0        2.646598    0.548489    0.536841
      8          1           0        1.622414    1.375168   -0.666081
      9          6           0       -0.764920    0.200501    0.008923
     10          8           0       -1.068035    1.224548   -0.604537
     11          8           0       -1.700824   -0.697499    0.463087
     12          1           0       -2.601096   -0.429163    0.176072
 ---------------------------------------------------------------------

 SCF Done:  E(RB3LYP) =  -343.593234210     A.U. after   14 cycles

 Excitation energies and oscillator strengths:

 Excited State   1:      Singlet-A      5.2901 eV  234.37 nm  f=0.0005  <S**2>=0.000
      24 -> 25         0.70060
 This state for optimization and/or second-order correction.
 Total Energy, E(TD-HF/TD-DFT) =  -343.398827961
 Copying the excited state density for this state as the 1-particle RhoCI density.

 Excited State   2:      Singlet-A      6.0486 eV  204.98 nm  f=0.0027  <S**2>=0.000
      23 -> 25         0.70423

 Excited State   3:      Singlet-A      7.7446 eV  160.09 nm  f=0.0150  <S**2>=0.000
      21 -> 25         0.52024
      22 -> 25         0.40480
      24 -> 26        -0.17901
      24 -> 27         0.12664

 Excited State   4:      Singlet-A      7.7862 eV  159.24 nm  f=0.0346  <S**2>=0.000
      21 -> 25         0.45400
      22 -> 25        -0.42739
      24 -> 26         0.27594
      24 -> 27        -0.12471

 Excited State   5:      Singlet-A      8.1704 eV  151.75 nm  f=0.0047  <S**2>=0.000
      23 -> 26         0.35800
      23 -> 27         0.59177

 Excited State   6:      Singlet-A      8.5302 eV  145.35 nm  f=0.0460  <S**2>=0.000
      20 -> 25        -0.15841
      22 -> 25         0.23949
      24 -> 26         0.58258
      24 -> 27         0.23627

 Excited State   7:      Singlet-A      8.5780 eV  144.54 nm  f=0.0189  <S**2>=0.000
      18 -> 25        -0.19764
      20 -> 25         0.63193
      21 -> 25        -0.12606
      24 -> 26         0.14789

 Excited State   8:      Singlet-A      8.7524 eV  141.66 nm  f=0.0474  <S**2>=0.000
      22 -> 25        -0.19173
      23 -> 26         0.38057
      23 -> 27        -0.20308
      24 -> 26        -0.13224
      24 -> 27         0.48139

 Excited State   9:      Singlet-A      8.7560 eV  141.60 nm  f=0.0095  <S**2>=0.000
      22 -> 25         0.14536
      22 -> 26        -0.15185
      23 -> 26         0.43965
      23 -> 27        -0.28988
      24 -> 27        -0.40707

 Excited State  10:      Singlet-A      9.0487 eV  137.02 nm  f=0.0074  <S**2>=0.000
      19 -> 25         0.69272
      20 -> 25         0.10859

 Excited State  11:      Singlet-A      9.1315 eV  135.78 nm  f=0.0014  <S**2>=0.000
      22 -> 26         0.62854
      22 -> 27        -0.24995
      23 -> 26         0.15683

 Excited State  12:      Singlet-A      9.4088 eV  131.77 nm  f=0.0144  <S**2>=0.000
      17 -> 25        -0.10375
      18 -> 25         0.65381
      20 -> 25         0.20732

 Excited State  13:      Singlet-A      9.8180 eV  126.28 nm  f=0.0129  <S**2>=0.000
      23 -> 28         0.64604
      23 -> 29        -0.11383
      24 -> 28        -0.17679

 Excited State  14:      Singlet-A      9.9105 eV  125.10 nm  f=0.0183  <S**2>=0.000
      22 -> 26         0.23666
      22 -> 27         0.60381
      23 -> 28        -0.14684
      24 -> 28        -0.19539

 Excited State  15:      Singlet-A     10.0068 eV  123.90 nm  f=0.0063  <S**2>=0.000
      17 -> 25         0.20471
      22 -> 27         0.17237
      23 -> 28         0.13866
      24 -> 28         0.61793

 Excited State  16:      Singlet-A     10.1367 eV  122.31 nm  f=0.0206  <S**2>=0.000
      16 -> 25         0.56454
      17 -> 25         0.28035
      21 -> 26         0.17863
      21 -> 27         0.22031

 The electronic state is 1-A.
 Alpha  occ. eigenvalues --  -19.19797 -19.15613 -19.14556 -10.32655 -10.26017
 Alpha  occ. eigenvalues --  -10.18495  -1.09452  -1.01602  -1.00805  -0.77457
 Alpha  occ. eigenvalues --   -0.68205  -0.58689  -0.52819  -0.49835  -0.47486
 Alpha  occ. eigenvalues --   -0.43208  -0.42170  -0.40843  -0.38894  -0.37756
 Alpha  occ. eigenvalues --   -0.34596  -0.31764  -0.28084  -0.27649
 Alpha virt. eigenvalues --   -0.01440   0.06992   0.07558   0.12595   0.14487
 Alpha virt. eigenvalues --    0.15181   0.17106   0.21544   0.22137   0.22971
 Alpha virt. eigenvalues --    0.30982   0.33491   0.52607   0.53885   0.55327

 Mulliken charges:
               1
     1  C    0.077823
     2  H    0.148899
     3  O   -0.627573
     4  H    0.397216
     5  C   -0.451100
     6  H    0.154325
     7  H    0.138225
     8  H    0.184798
     9  C    0.596838
    10  O   -0.458778
    11  O   -0.574255
    12  H    0.413580
 Sum of Mulliken charges =  -0.00000

 Dipole moment (field-independent basis, Debye):
    X=              1.0024    Y=             -1.1127    Z=              1.9392  Tot=              2.4502
 Quadrupole moment (field-independent basis, Debye-Ang):
   XX=            -26.0158   YY=            -37.5782   ZZ=            -36.6955
   XY=             -0.6883   XZ=              0.5832   YZ=              0.9418

 Normal termination of Gaussian 16 at Fri Feb 21 14:05:26 2025.
