 Gaussian 16, Revision C.02,
 Gaussian 16:  ES64L-G16RevC.02  7-Dec-2021

 ------------------------------
 # td=(nstat=16) b3lyp/6-31g(d)
 ------------------------------

 ------------------
 lactic_acid | No.1
 ------------------
 Symbolic Z-matrix:
 Charge =  0 Multiplicity = 1

                         Standard orientation:
 ---------------------------------------------------------------------
 Center     Atomic      Atomic             Coordinates (Angstroms)
 Number     Number       Type             X           Y           Z
 ---------------------------------------------------------------------
      1          6           0        0.660084   -0.272083    0.374577
      2          1           0        0.723289   -0.815913    1.325405
      3          8           0        1.067553   -1.146988   -0.730333
      4          1           0        1.947972   -1.527836   -0.536099
      5          6           0        1.500539    0.999635    0.405676
      6          1           0        1.163360    1.680565    1.195058
      7          1           0        2.549877    0.748956    0.601226
      8          1           0        1.428977    1.516030   -0.553246
      9          6           0       -0.822234   -0.046959    0.123625
     10          8           0       -1.722435   -0.771331    0.548963
     11          8           0       -1.071364    1.064654   -0.647272
     12          1           0       -2.033842    1.143968   -0.826482
 ---------------------------------------------------------------------

 SCF Done:  E(RB3LYP) =  -343.591504668     A.U. after   14 cycles

 Excitation energies and oscillator strengths:

 Excited State   1:      Singlet-A      5.2204 eV  237.50 nm  f=0.0009  <S**2>=0.000
      23 -> 25         0.24360
      24 -> 25         0.65818
 This state for optimization and/or second-order correction.
 Total Energy, E(TD-HF/TD-DFT) =  -343.399657488
 Copying the excited state density for this state as the 1-particle RhoCI density.

 Excited State   2:      Singlet-A      6.0902 eV  203.58 nm  f=0.0021  <S**2>=0.000
      23 -> 25         0.65662
      24 -> 25        -0.24657

 Excited State   3:      Singlet-A      7.6762 eV  161.52 nm  f=0.0263  <S**2>=0.000
      21 -> 25        -0.23989
      22 -> 25         0.49823
      23 -> 26        -0.13965
      24 -> 26        -0.38121
      24 -> 27         0.10723

 Excited State   4:      Singlet-A      7.7985 eV  158.98 nm  f=0.0052  <S**2>=0.000
      20 -> 25        -0.10286
      21 -> 25         0.64871
      22 -> 25         0.14316
      24 -> 26        -0.19217

 Excited State   5:      Singlet-A      8.0326 eV  154.35 nm  f=0.0148  <S**2>=0.000
      22 -> 25        -0.15861
      23 -> 26         0.40903
      23 -> 27         0.27031
      24 -> 26        -0.35812
      24 -> 27        -0.30120

 Excited State   6:      Singlet-A      8.4561 eV  146.62 nm  f=0.0588  <S**2>=0.000
      20 -> 25        -0.18106
      22 -> 25         0.36888
      23 -> 26         0.30014
      23 -> 27         0.20124
      24 -> 26         0.40151

 Excited State   7:      Singlet-A      8.5990 eV  144.19 nm  f=0.0161  <S**2>=0.000
      18 -> 25         0.14134
      20 -> 25         0.64259
      21 -> 25         0.10417

 Excited State   8:      Singlet-A      8.6366 eV  143.56 nm  f=0.0127  <S**2>=0.000
      22 -> 26         0.12543
      23 -> 26         0.37967
      24 -> 27         0.56386

 Excited State   9:      Singlet-A      8.8389 eV  140.27 nm  f=0.0407  <S**2>=0.000
      22 -> 25        -0.14894
      22 -> 26        -0.15134
      22 -> 27         0.10493
      23 -> 26        -0.22490
      23 -> 27         0.56427
      24 -> 27         0.23565

 Excited State  10:      Singlet-A      9.0369 eV  137.20 nm  f=0.0012  <S**2>=0.000
      19 -> 25         0.12804
      22 -> 26         0.59979
      22 -> 27        -0.25012
      23 -> 26        -0.10864
      23 -> 27         0.18057

 Excited State  11:      Singlet-A      9.0757 eV  136.61 nm  f=0.0030  <S**2>=0.000
      19 -> 25         0.68335
      22 -> 26        -0.11410

 Excited State  12:      Singlet-A      9.7669 eV  126.94 nm  f=0.0271  <S**2>=0.000
      16 -> 25        -0.10454
      17 -> 25        -0.30109
      18 -> 25         0.56513
      20 -> 25        -0.14210
      22 -> 27         0.11890
      24 -> 28         0.13095

 Excited State  13:      Singlet-A      9.8533 eV  125.83 nm  f=0.0077  <S**2>=0.000
      18 -> 25        -0.16553
      22 -> 26         0.10395
      22 -> 27         0.21854
      23 -> 28        -0.20879
      24 -> 28         0.54597
      24 -> 29        -0.16079

 Excited State  14:      Singlet-A      9.9038 eV  125.19 nm  f=0.0182  <S**2>=0.000
      21 -> 26        -0.28396
      21 -> 27        -0.11297
      22 -> 26         0.20675
      22 -> 27         0.49901
      24 -> 28        -0.24554
      24 -> 29         0.11848

 Excited State  15:      Singlet-A     10.0143 eV  123.81 nm  f=0.0253  <S**2>=0.000
      16 -> 25        -0.10424
      17 -> 25         0.26581
      18 -> 25         0.11470
      21 -> 26         0.50379
      21 -> 27         0.24035
      22 -> 27         0.26551

 Excited State  16:      Singlet-A     10.1192 eV  122.52 nm  f=0.0183  <S**2>=0.000
      16 -> 25        -0.35971
      17 -> 25         0.44086
      18 -> 25         0.16522
      21 -> 26        -0.23579
      22 -> 27        -0.14639
      24 -> 30        -0.15022

 The electronic state is 1-A.
 Alpha  occ. eigenvalues --  -19.19964 -19.15589 -19.14322 -10.32648 -10.26054
 Alpha  occ. eigenvalues --  -10.18854  -1.09485  -1.01624  -1.00614  -0.77694
 Alpha  occ. eigenvalues --   -0.67524  -0.60428  -0.52316  -0.48466  -0.47872
 Alpha  occ. eigenvalues --   -0.43652  -0.42198  -0.41352  -0.38759  -0.38300
 Alpha  occ. eigenvalues --   -0.34572  -0.31743  -0.28382  -0.27098
 Alpha virt. eigenvalues --   -0.01375   0.06171   0.07990   0.13160   0.14253
 Alpha virt. eigenvalues --    0.14998   0.16868   0.20720   0.21850   0.22594
 Alpha virt. eigenvalues --    0.31236   0.33792   0.51890   0.52826   0.56053

 Mulliken charges:
               1
     1  C    0.077961
     2  H    0.154820
     3  O   -0.626700
     4  H    0.396747
     5  C   -0.457497
     6  H    0.153305
     7  H    0.140853
     8  H    0.184215
     9  C    0.591679
    10  O   -0.458844
    11  O   -0.571362
    12  H    0.414823
 Sum of Mulliken charges =  -0.00000

 Dipole moment (field-independent basis, Debye):
    X=              1.8995    Y=              1.4136    Z=              0.4676  Tot=              2.4135
 Quadrupole moment (field-independent basis, Debye-Ang):
   XX=            -29.8329   YY=            -35.6853   ZZ=            -35.8964
   XY=             -6.7372   XZ=              4.1567   YZ=             -0.2909

 Normal termination of Gaussian 16 at Fri Feb 21 14:05:15 2025.
