 Gaussian 16, Revision C.02,
 Gaussian 16:  ES64L-G16RevC.02  7-Dec-2021

 ------------------------------
 # td=(nstat=16) b3lyp/6-31g(d)
 ------------------------------

 ------------------
 lactic_acid | No.2
 ------------------
 Symbolic Z-matrix:
 Charge =  0 Multiplicity = 1

                         Standard orientation:
 ---------------------------------------------------------------------
 Center     Atomic      Atomic             Coordinates (Angstroms)
 Number     Number       Type             X           Y           Z
 ---------------------------------------------------------------------
      1          6           0       -0.655001   -0.291104   -0.374918
      2          1           0       -0.710765   -0.876164   -1.300985
      3          8           0       -1.078487   -1.108546    0.764806
      4          1           0       -1.995683   -1.418266    0.619680
      5          6           0       -1.483022    0.987338   -0.475153
      6          1           0       -1.134312    1.624325   -1.295820
      7          1           0       -2.533673    0.738639   -0.667128
      8          1           0       -1.412237    1.548648    0.458456
      9          6           0        0.823326   -0.049672   -0.123562
     10          8           0        1.739900   -0.682196   -0.649700
     11          8           0        1.046873    0.970752    0.770012
     12          1           0        2.008565    1.063362    0.946649
 ---------------------------------------------------------------------

 SCF Done:  E(RB3LYP) =  -343.592106461     A.U. after   14 cycles

 Excitation energies and oscillator strengths:

 Excited State   1:      Singlet-A      5.2472 eV  236.29 nm  f=0.0012  <S**2>=0.000
      23 -> 25        -0.24652
      24 -> 25         0.65733
 This state for optimization and/or second-order correction.
 Total Energy, E(TD-HF/TD-DFT) =  -343.399274566
 Copying the excited state density for this state as the 1-particle RhoCI density.

 Excited State   2:      Singlet-A      6.1161 eV  202.72 nm  f=0.0005  <S**2>=0.000
      23 -> 25         0.65738
      24 -> 25         0.24912

 Excited State   3:      Singlet-A      7.6965 eV  161.09 nm  f=0.0273  <S**2>=0.000
      21 -> 25        -0.18506
      22 -> 25         0.49275
      23 -> 26         0.12628
      24 -> 26        -0.41788
      24 -> 27        -0.11326

 Excited State   4:      Singlet-A      7.8353 eV  158.24 nm  f=0.0024  <S**2>=0.000
      20 -> 25        -0.11041
      21 -> 25         0.66550
      22 -> 25         0.10077
      24 -> 26        -0.15968

 Excited State   5:      Singlet-A      7.9950 eV  155.08 nm  f=0.0141  <S**2>=0.000
      22 -> 25         0.16660
      23 -> 26         0.45340
      23 -> 27        -0.25253
      24 -> 26         0.33022
      24 -> 27        -0.27946

 Excited State   6:      Singlet-A      8.4591 eV  146.57 nm  f=0.0696  <S**2>=0.000
      20 -> 25        -0.15677
      22 -> 25         0.38395
      23 -> 26        -0.31097
      23 -> 27         0.18138
      24 -> 26         0.40698

 Excited State   7:      Singlet-A      8.6003 eV  144.16 nm  f=0.0145  <S**2>=0.000
      18 -> 25        -0.13728
      20 -> 25         0.64892
      21 -> 25         0.10680

 Excited State   8:      Singlet-A      8.6468 eV  143.39 nm  f=0.0155  <S**2>=0.000
      22 -> 26        -0.13004
      23 -> 26         0.33703
      24 -> 27         0.57947

 Excited State   9:      Singlet-A      8.8488 eV  140.11 nm  f=0.0442  <S**2>=0.000
      22 -> 25        -0.15195
      22 -> 26        -0.14610
      22 -> 27        -0.11007
      23 -> 26         0.20656
      23 -> 27         0.57429
      24 -> 27        -0.22808

 Excited State  10:      Singlet-A      9.0181 eV  137.48 nm  f=0.0013  <S**2>=0.000
      22 -> 26         0.60179
      22 -> 27         0.27069
      23 -> 27         0.18837

 Excited State  11:      Singlet-A      9.1169 eV  135.99 nm  f=0.0012  <S**2>=0.000
      19 -> 25         0.69452

 Excited State  12:      Singlet-A      9.8000 eV  126.51 nm  f=0.0368  <S**2>=0.000
      17 -> 25         0.29133
      18 -> 25         0.51188
      20 -> 25         0.13354
      21 -> 26         0.10373
      22 -> 26        -0.12938
      22 -> 27         0.24451
      24 -> 28        -0.13907

 Excited State  13:      Singlet-A      9.8679 eV  125.64 nm  f=0.0291  <S**2>=0.000
      17 -> 25        -0.16930
      18 -> 25        -0.23325
      21 -> 26         0.25880
      21 -> 27        -0.10124
      22 -> 26        -0.22817
      22 -> 27         0.50556

 Excited State  14:      Singlet-A      9.9396 eV  124.74 nm  f=0.0042  <S**2>=0.000
      18 -> 25         0.11471
      23 -> 28         0.21687
      23 -> 29         0.10914
      24 -> 28         0.58346
      24 -> 29         0.23354

 Excited State  15:      Singlet-A      9.9882 eV  124.13 nm  f=0.0150  <S**2>=0.000
      17 -> 25         0.17828
      21 -> 26         0.56269
      21 -> 27        -0.23104
      22 -> 26         0.10865
      22 -> 27        -0.26200

 Excited State  16:      Singlet-A     10.1638 eV  121.99 nm  f=0.0256  <S**2>=0.000
      16 -> 25         0.27558
      17 -> 25         0.47661
      18 -> 25        -0.21524
      21 -> 26        -0.13134
      24 -> 28         0.12035
      24 -> 29        -0.13636
      24 -> 30        -0.23721

 The electronic state is 1-A.
 Alpha  occ. eigenvalues --  -19.19892 -19.15597 -19.14381 -10.32643 -10.26020
 Alpha  occ. eigenvalues --  -10.19034  -1.09474  -1.01610  -1.00692  -0.77730
 Alpha  occ. eigenvalues --   -0.67658  -0.60411  -0.52063  -0.48495  -0.47866
 Alpha  occ. eigenvalues --   -0.44130  -0.42349  -0.41224  -0.38828  -0.38208
 Alpha  occ. eigenvalues --   -0.34632  -0.31721  -0.28377  -0.27145
 Alpha virt. eigenvalues --   -0.01276   0.06057   0.07957   0.13318   0.14273
 Alpha virt. eigenvalues --    0.14885   0.17107   0.20175   0.21583   0.22880
 Alpha virt. eigenvalues --    0.31214   0.34004   0.51430   0.52864   0.56077

 Mulliken charges:
               1
     1  C    0.084706
     2  H    0.154653
     3  O   -0.627942
     4  H    0.396059
     5  C   -0.466054
     6  H    0.155068
     7  H    0.142390
     8  H    0.186183
     9  C    0.590674
    10  O   -0.460608
    11  O   -0.570090
    12  H    0.414962
 Sum of Mulliken charges =  -0.00000

 Dipole moment (field-independent basis, Debye):
    X=             -1.9721    Y=              1.3775    Z=             -0.2770  Tot=              2.4215
 Quadrupole moment (field-independent basis, Debye-Ang):
   XX=            -29.7261   YY=            -35.5635   ZZ=            -36.2123
   XY=              6.1387   XZ=              4.5164   YZ=              0.1035

 Normal termination of Gaussian 16 at Fri Feb 21 14:05:15 2025.
