 Gaussian 16, Revision C.02,
 Gaussian 16:  ES64L-G16RevC.02  7-Dec-2021

 ------------------------------
 # td=(nstat=16) b3lyp/6-31g(d)
 ------------------------------

 -------------------
 lactic_acid | No.11
 -------------------
 Symbolic Z-matrix:
 Charge =  0 Multiplicity = 1

                         Standard orientation:
 ---------------------------------------------------------------------
 Center     Atomic      Atomic             Coordinates (Angstroms)
 Number     Number       Type             X           Y           Z
 ---------------------------------------------------------------------
      1          6           0        0.680022   -0.005762    0.389938
      2          1           0        0.777642    0.166863    1.474640
      3          8           0        1.107825   -1.346308    0.054768
      4          1           0        2.057730   -1.445342    0.266240
      5          6           0        1.485724    1.062500   -0.362463
      6          1           0        1.093904    2.059873   -0.147361
      7          1           0        2.537726    1.027035   -0.057109
      8          1           0        1.428498    0.882660   -1.440330
      9          6           0       -0.799126    0.141632    0.087859
     10          8           0       -1.391693    1.222416    0.193850
     11          8           0       -1.430315   -1.008687   -0.290472
     12          1           0       -2.381757   -0.820675   -0.453252
 ---------------------------------------------------------------------

 SCF Done:  E(RB3LYP) =  -343.594151832     A.U. after   14 cycles

 Excitation energies and oscillator strengths:

 Excited State   1:      Singlet-A      5.5204 eV  224.59 nm  f=0.0005  <S**2>=0.000
      24 -> 25         0.70182
 This state for optimization and/or second-order correction.
 Total Energy, E(TD-HF/TD-DFT) =  -343.391280856
 Copying the excited state density for this state as the 1-particle RhoCI density.

 Excited State   2:      Singlet-A      6.5039 eV  190.63 nm  f=0.0167  <S**2>=0.000
      23 -> 25         0.69856

 Excited State   3:      Singlet-A      7.7250 eV  160.50 nm  f=0.0021  <S**2>=0.000
      23 -> 26         0.64543
      23 -> 27        -0.22737
      24 -> 26         0.13457

 Excited State   4:      Singlet-A      7.7449 eV  160.08 nm  f=0.0106  <S**2>=0.000
      22 -> 25        -0.44300
      23 -> 26        -0.13563
      24 -> 26         0.48717
      24 -> 27         0.19017

 Excited State   5:      Singlet-A      8.2187 eV  150.86 nm  f=0.0066  <S**2>=0.000
      21 -> 25         0.69215

 Excited State   6:      Singlet-A      8.4617 eV  146.52 nm  f=0.0751  <S**2>=0.000
      22 -> 25         0.37410
      24 -> 26         0.46940
      24 -> 27        -0.32992

 Excited State   7:      Singlet-A      8.6538 eV  143.27 nm  f=0.0015  <S**2>=0.000
      18 -> 25        -0.14916
      20 -> 25         0.49217
      22 -> 26         0.20308
      23 -> 26        -0.14453
      23 -> 27        -0.39255

 Excited State   8:      Singlet-A      8.6832 eV  142.79 nm  f=0.0032  <S**2>=0.000
      18 -> 25        -0.11703
      20 -> 25         0.42251
      22 -> 26        -0.19281
      23 -> 26         0.15684
      23 -> 27         0.40850
      24 -> 27         0.23731

 Excited State   9:      Singlet-A      8.8046 eV  140.82 nm  f=0.0825  <S**2>=0.000
      20 -> 25        -0.14472
      22 -> 25         0.32093
      23 -> 27        -0.21300
      24 -> 27         0.52439

 Excited State  10:      Singlet-A      8.9900 eV  137.91 nm  f=0.0051  <S**2>=0.000
      22 -> 26         0.56016
      22 -> 27         0.28508
      23 -> 27         0.26723

 Excited State  11:      Singlet-A      9.4570 eV  131.10 nm  f=0.0439  <S**2>=0.000
      19 -> 25         0.68522

 Excited State  12:      Singlet-A      9.6225 eV  128.85 nm  f=0.0013  <S**2>=0.000
      21 -> 26         0.23075
      22 -> 26        -0.27964
      22 -> 27         0.57775
      23 -> 28        -0.11481

 Excited State  13:      Singlet-A      9.7007 eV  127.81 nm  f=0.0035  <S**2>=0.000
      18 -> 25        -0.15660
      21 -> 26        -0.11235
      22 -> 27         0.12785
      23 -> 28         0.62427
      23 -> 30         0.15015

 Excited State  14:      Singlet-A      9.7447 eV  127.23 nm  f=0.0044  <S**2>=0.000
      18 -> 25         0.55010
      20 -> 25         0.16019
      21 -> 26         0.17943
      23 -> 28         0.21414
      24 -> 28        -0.25204

 Excited State  15:      Singlet-A      9.8027 eV  126.48 nm  f=0.0374  <S**2>=0.000
      17 -> 25         0.11524
      18 -> 25        -0.30435
      21 -> 26         0.49754
      21 -> 27        -0.11609
      22 -> 27        -0.15034
      24 -> 28        -0.27640

 Excited State  16:      Singlet-A      9.8864 eV  125.41 nm  f=0.0136  <S**2>=0.000
      17 -> 25        -0.17485
      21 -> 26         0.32743
      21 -> 27        -0.10099
      24 -> 28         0.54495
      24 -> 29        -0.12200

 The electronic state is 1-A.
 Alpha  occ. eigenvalues --  -19.19754 -19.15393 -19.13947 -10.32616 -10.26318
 Alpha  occ. eigenvalues --  -10.19077  -1.09478  -1.01827  -1.00468  -0.77447
 Alpha  occ. eigenvalues --   -0.68099  -0.59487  -0.51989  -0.49931  -0.47179
 Alpha  occ. eigenvalues --   -0.45194  -0.41849  -0.40643  -0.38705  -0.37553
 Alpha  occ. eigenvalues --   -0.34615  -0.31455  -0.27775  -0.27405
 Alpha virt. eigenvalues --   -0.00200   0.05705   0.07977   0.12267   0.13792
 Alpha virt. eigenvalues --    0.15288   0.17086   0.19328   0.22919   0.24706
 Alpha virt. eigenvalues --    0.30981   0.37036   0.51686   0.53117   0.56332

 Mulliken charges:
               1
     1  C    0.065404
     2  H    0.162153
     3  O   -0.618238
     4  H    0.394327
     5  C   -0.464236
     6  H    0.180786
     7  H    0.142584
     8  H    0.168482
     9  C    0.586299
    10  O   -0.478745
    11  O   -0.551714
    12  H    0.412897
 Sum of Mulliken charges =  -0.00000

 Dipole moment (field-independent basis, Debye):
    X=              1.6228    Y=             -0.3604    Z=              0.3047  Tot=              1.6900
 Quadrupole moment (field-independent basis, Debye-Ang):
   XX=            -26.4471   YY=            -40.6273   ZZ=            -34.0059
   XY=              2.9989   XZ=              2.7720   YZ=             -1.1118

 Normal termination of Gaussian 16 at Fri Feb 21 14:05:11 2025.
