 Gaussian 16, Revision C.02,
 Gaussian 16:  ES64L-G16RevC.02  7-Dec-2021

 ------------------------------
 # td=(nstat=16) b3lyp/6-31g(d)
 ------------------------------

 ------------------
 lactic_acid | No.6
 ------------------
 Symbolic Z-matrix:
 Charge =  0 Multiplicity = 1

                         Standard orientation:
 ---------------------------------------------------------------------
 Center     Atomic      Atomic             Coordinates (Angstroms)
 Number     Number       Type             X           Y           Z
 ---------------------------------------------------------------------
      1          6           0       -0.661523    0.181332   -0.420057
      2          1           0       -0.730470    0.687909   -1.391255
      3          8           0       -1.208853   -1.159351   -0.499868
      4          1           0       -2.180966   -1.110836   -0.599252
      5          6           0       -1.360569    1.023204    0.659070
      6          1           0       -0.911459    2.019174    0.732112
      7          1           0       -2.420371    1.150069    0.407074
      8          1           0       -1.284338    0.522618    1.628451
      9          6           0        0.819401    0.065113   -0.123244
     10          8           0        1.679000    0.790993   -0.631303
     11          8           0        1.112593   -0.879636    0.824108
     12          1           0        2.081824   -0.902876    0.984758
 ---------------------------------------------------------------------

 SCF Done:  E(RB3LYP) =  -343.593931878     A.U. after   14 cycles

 Excitation energies and oscillator strengths:

 Excited State   1:      Singlet-A      5.4161 eV  228.92 nm  f=0.0018  <S**2>=0.000
      23 -> 25        -0.18761
      24 -> 25         0.67775
 This state for optimization and/or second-order correction.
 Total Energy, E(TD-HF/TD-DFT) =  -343.394894366
 Copying the excited state density for this state as the 1-particle RhoCI density.

 Excited State   2:      Singlet-A      6.3549 eV  195.10 nm  f=0.0066  <S**2>=0.000
      23 -> 25         0.67907
      24 -> 25         0.18748

 Excited State   3:      Singlet-A      7.7158 eV  160.69 nm  f=0.0168  <S**2>=0.000
      22 -> 25         0.43441
      23 -> 27        -0.12356
      24 -> 26         0.51132
      24 -> 27         0.14025

 Excited State   4:      Singlet-A      7.8049 eV  158.86 nm  f=0.0066  <S**2>=0.000
      22 -> 25        -0.16450
      23 -> 26         0.62179
      23 -> 27        -0.20302
      24 -> 27        -0.16776

 Excited State   5:      Singlet-A      8.0722 eV  153.59 nm  f=0.0021  <S**2>=0.000
      20 -> 25         0.11654
      21 -> 25         0.68976

 Excited State   6:      Singlet-A      8.4530 eV  146.68 nm  f=0.0873  <S**2>=0.000
      22 -> 25        -0.39220
      23 -> 26        -0.20372
      24 -> 26         0.46039
      24 -> 27        -0.23434

 Excited State   7:      Singlet-A      8.6649 eV  143.09 nm  f=0.0234  <S**2>=0.000
      18 -> 25        -0.16672
      20 -> 25         0.58940
      24 -> 27        -0.29272

 Excited State   8:      Singlet-A      8.7293 eV  142.03 nm  f=0.0367  <S**2>=0.000
      18 -> 25        -0.10982
      20 -> 25         0.27317
      22 -> 25        -0.24758
      23 -> 26         0.11818
      23 -> 27         0.16019
      24 -> 27         0.52427

 Excited State   9:      Singlet-A      8.7903 eV  141.05 nm  f=0.0280  <S**2>=0.000
      22 -> 25         0.13706
      22 -> 26        -0.20333
      23 -> 26         0.20132
      23 -> 27         0.60012
      24 -> 27        -0.14567

 Excited State  10:      Singlet-A      8.8937 eV  139.41 nm  f=0.0076  <S**2>=0.000
      22 -> 26         0.57483
      22 -> 27         0.32399
      23 -> 27         0.17616

 Excited State  11:      Singlet-A      9.4025 eV  131.86 nm  f=0.0118  <S**2>=0.000
      19 -> 25         0.69163

 Excited State  12:      Singlet-A      9.6232 eV  128.84 nm  f=0.0020  <S**2>=0.000
      21 -> 26         0.18606
      22 -> 26        -0.31911
      22 -> 27         0.59022

 Excited State  13:      Singlet-A      9.7958 eV  126.57 nm  f=0.0052  <S**2>=0.000
      21 -> 26         0.62301
      21 -> 27        -0.16628
      22 -> 27        -0.16546
      24 -> 28         0.13361

 Excited State  14:      Singlet-A      9.8632 eV  125.70 nm  f=0.0910  <S**2>=0.000
      17 -> 25        -0.17951
      18 -> 25         0.50870
      20 -> 25         0.15880
      21 -> 26         0.16588
      24 -> 28        -0.32460

 Excited State  15:      Singlet-A     10.0247 eV  123.68 nm  f=0.0264  <S**2>=0.000
      17 -> 25        -0.15351
      18 -> 25         0.24347
      23 -> 28         0.51420
      23 -> 30         0.13595
      24 -> 28         0.30971

 Excited State  16:      Singlet-A     10.1134 eV  122.59 nm  f=0.0131  <S**2>=0.000
      17 -> 25        -0.21171
      18 -> 25         0.12240
      23 -> 28        -0.39261
      23 -> 30        -0.12916
      24 -> 28         0.49855

 The electronic state is 1-A.
 Alpha  occ. eigenvalues --  -19.19669 -19.15489 -19.14151 -10.32523 -10.26093
 Alpha  occ. eigenvalues --  -10.19680  -1.09378  -1.01790  -1.00561  -0.77802
 Alpha  occ. eigenvalues --   -0.68012  -0.60150  -0.51703  -0.48798  -0.47251
 Alpha  occ. eigenvalues --   -0.45878  -0.42568  -0.40663  -0.39190  -0.37855
 Alpha  occ. eigenvalues --   -0.34590  -0.31395  -0.28080  -0.27322
 Alpha virt. eigenvalues --   -0.00557   0.05640   0.07865   0.12893   0.14295
 Alpha virt. eigenvalues --    0.15022   0.17290   0.18924   0.20496   0.24771
 Alpha virt. eigenvalues --    0.31087   0.35965   0.50655   0.53131   0.55386

 Mulliken charges:
               1
     1  C    0.088304
     2  H    0.157887
     3  O   -0.622258
     4  H    0.394228
     5  C   -0.480191
     6  H    0.169635
     7  H    0.149808
     8  H    0.179075
     9  C    0.580017
    10  O   -0.471613
    11  O   -0.558480
    12  H    0.413587
 Sum of Mulliken charges =  -0.00000

 Dipole moment (field-independent basis, Debye):
    X=             -1.9656    Y=              0.3028    Z=              0.9920  Tot=              2.2225
 Quadrupole moment (field-independent basis, Debye-Ang):
   XX=            -28.5435   YY=            -37.9512   ZZ=            -35.0916
   XY=             -4.1861   XZ=              4.8467   YZ=              0.8292

 Normal termination of Gaussian 16 at Fri Feb 21 14:05:13 2025.
