 Gaussian 16, Revision C.02,
 Gaussian 16:  ES64L-G16RevC.02  7-Dec-2021

 ------------------------------
 # td=(nstat=16) b3lyp/6-31g(d)
 ------------------------------

 ------------------
 lactic_acid | No.9
 ------------------
 Symbolic Z-matrix:
 Charge =  0 Multiplicity = 1

                         Standard orientation:
 ---------------------------------------------------------------------
 Center     Atomic      Atomic             Coordinates (Angstroms)
 Number     Number       Type             X           Y           Z
 ---------------------------------------------------------------------
      1          6           0       -0.678103    0.081456   -0.402358
      2          1           0       -0.778296    0.418448   -1.444943
      3          8           0       -1.184756   -1.263981   -0.251069
      4          1           0       -2.152157   -1.265729   -0.396286
      5          6           0       -1.400483    1.078953    0.519302
      6          1           0       -0.964617    2.077243    0.422084
      7          1           0       -2.461642    1.138383    0.250417
      8          1           0       -1.321076    0.751447    1.560434
      9          6           0        0.809250    0.097405   -0.112438
     10          8           0        1.520913    1.074097   -0.374790
     11          8           0        1.293244   -1.027735    0.492316
     12          1           0        2.258602   -0.925733    0.649600
 ---------------------------------------------------------------------

 SCF Done:  E(RB3LYP) =  -343.594169177     A.U. after   14 cycles

 Excitation energies and oscillator strengths:

 Excited State   1:      Singlet-A      5.5206 eV  224.58 nm  f=0.0010  <S**2>=0.000
      23 -> 25        -0.14717
      24 -> 25         0.68827
 This state for optimization and/or second-order correction.
 Total Energy, E(TD-HF/TD-DFT) =  -343.391291119
 Copying the excited state density for this state as the 1-particle RhoCI density.

 Excited State   2:      Singlet-A      6.5217 eV  190.11 nm  f=0.0153  <S**2>=0.000
      23 -> 25         0.68469
      24 -> 25         0.14579

 Excited State   3:      Singlet-A      7.6687 eV  161.68 nm  f=0.0019  <S**2>=0.000
      23 -> 26         0.60587
      23 -> 27        -0.20712
      24 -> 26         0.27183

 Excited State   4:      Singlet-A      7.7324 eV  160.34 nm  f=0.0090  <S**2>=0.000
      22 -> 25         0.42351
      23 -> 26        -0.25188
      24 -> 26         0.45652
      24 -> 27         0.20003

 Excited State   5:      Singlet-A      8.2145 eV  150.93 nm  f=0.0057  <S**2>=0.000
      21 -> 25         0.69660

 Excited State   6:      Singlet-A      8.4622 eV  146.52 nm  f=0.0808  <S**2>=0.000
      22 -> 25        -0.37248
      23 -> 26        -0.13068
      24 -> 26         0.44315
      24 -> 27        -0.34553

 Excited State   7:      Singlet-A      8.6555 eV  143.24 nm  f=0.0056  <S**2>=0.000
      18 -> 25        -0.12139
      20 -> 25        -0.41026
      22 -> 26        -0.25273
      22 -> 27        -0.12058
      23 -> 26         0.14739
      23 -> 27         0.41842
      24 -> 27         0.17074

 Excited State   8:      Singlet-A      8.6935 eV  142.62 nm  f=0.0005  <S**2>=0.000
      18 -> 25         0.14791
      20 -> 25         0.52796
      22 -> 26        -0.16019
      23 -> 26         0.11954
      23 -> 27         0.32667
      24 -> 27         0.16813

 Excited State   9:      Singlet-A      8.7946 eV  140.98 nm  f=0.0912  <S**2>=0.000
      22 -> 25        -0.35168
      23 -> 27        -0.24794
      24 -> 27         0.51645

 Excited State  10:      Singlet-A      8.9527 eV  138.49 nm  f=0.0008  <S**2>=0.000
      22 -> 26         0.55795
      22 -> 27         0.26621
      23 -> 27         0.31391

 Excited State  11:      Singlet-A      9.4983 eV  130.53 nm  f=0.0439  <S**2>=0.000
      18 -> 25         0.13295
      19 -> 25         0.67908

 Excited State  12:      Singlet-A      9.5942 eV  129.23 nm  f=0.0009  <S**2>=0.000
      22 -> 26        -0.29921
      22 -> 27         0.62153

 Excited State  13:      Singlet-A      9.6952 eV  127.88 nm  f=0.0094  <S**2>=0.000
      21 -> 26         0.65034
      21 -> 27        -0.14788
      24 -> 28         0.13264

 Excited State  14:      Singlet-A      9.8249 eV  126.19 nm  f=0.0415  <S**2>=0.000
      17 -> 25         0.11009
      18 -> 25         0.46426
      20 -> 25        -0.13778
      21 -> 26        -0.17279
      23 -> 28         0.32369
      23 -> 30         0.12885
      24 -> 28         0.28153

 Excited State  15:      Singlet-A      9.8671 eV  125.65 nm  f=0.0148  <S**2>=0.000
      17 -> 25        -0.10127
      18 -> 25        -0.33889
      23 -> 28         0.56304
      23 -> 30         0.13433

 Excited State  16:      Singlet-A      9.9966 eV  124.03 nm  f=0.0315  <S**2>=0.000
      17 -> 25        -0.24645
      18 -> 25        -0.20757
      19 -> 25         0.10394
      23 -> 28        -0.11750
      24 -> 28         0.58246
      24 -> 29        -0.10391

 The electronic state is 1-A.
 Alpha  occ. eigenvalues --  -19.19744 -19.15415 -19.13910 -10.32561 -10.26247
 Alpha  occ. eigenvalues --  -10.19450  -1.09442  -1.01856  -1.00455  -0.77595
 Alpha  occ. eigenvalues --   -0.68076  -0.59818  -0.51824  -0.49502  -0.46855
 Alpha  occ. eigenvalues --   -0.46024  -0.42148  -0.40702  -0.38835  -0.37598
 Alpha  occ. eigenvalues --   -0.34545  -0.31431  -0.27834  -0.27376
 Alpha virt. eigenvalues --   -0.00159   0.05488   0.07936   0.12567   0.13916
 Alpha virt. eigenvalues --    0.15311   0.16937   0.18873   0.21789   0.25174
 Alpha virt. eigenvalues --    0.31037   0.37095   0.51183   0.53084   0.55941

 Mulliken charges:
               1
     1  C    0.075948
     2  H    0.161020
     3  O   -0.619245
     4  H    0.394034
     5  C   -0.471325
     6  H    0.178433
     7  H    0.147047
     8  H    0.170820
     9  C    0.580143
    10  O   -0.479148
    11  O   -0.550657
    12  H    0.412932
 Sum of Mulliken charges =   0.00000

 Dipole moment (field-independent basis, Debye):
    X=             -1.7895    Y=             -0.0803    Z=              0.2764  Tot=              1.8125
 Quadrupole moment (field-independent basis, Debye-Ang):
   XX=            -27.1890   YY=            -39.8449   ZZ=            -34.2544
   XY=             -4.0933   XZ=              3.4676   YZ=              1.0824

 Normal termination of Gaussian 16 at Fri Feb 21 14:06:08 2025.
