 Gaussian 16, Revision C.02,
 Gaussian 16:  ES64L-G16RevC.02  7-Dec-2021

 ------------------------------
 # td=(nstat=16) b3lyp/6-31g(d)
 ------------------------------

 ------------------
 lactic_acid | No.3
 ------------------
 Symbolic Z-matrix:
 Charge =  0 Multiplicity = 1

                         Standard orientation:
 ---------------------------------------------------------------------
 Center     Atomic      Atomic             Coordinates (Angstroms)
 Number     Number       Type             X           Y           Z
 ---------------------------------------------------------------------
      1          6           0       -0.652383   -0.281632   -0.388247
      2          1           0       -0.704618   -0.846268   -1.326946
      3          8           0       -1.107637   -1.108483    0.728192
      4          1           0       -2.052017   -1.333249    0.602301
      5          6           0       -1.452446    1.017964   -0.481645
      6          1           0       -1.079358    1.657724   -1.289340
      7          1           0       -2.505637    0.795524   -0.691723
      8          1           0       -1.382522    1.563503    0.461819
      9          6           0        0.823857   -0.051638   -0.122485
     10          8           0        1.744497   -0.546483   -0.775052
     11          8           0        1.039171    0.800062    0.933553
     12          1           0        2.001725    0.893835    1.104608
 ---------------------------------------------------------------------

 SCF Done:  E(RB3LYP) =  -343.592725320     A.U. after   14 cycles

 Excitation energies and oscillator strengths:

 Excited State   1:      Singlet-A      5.2820 eV  234.73 nm  f=0.0016  <S**2>=0.000
      23 -> 25        -0.24509
      24 -> 25         0.65811
 This state for optimization and/or second-order correction.
 Total Energy, E(TD-HF/TD-DFT) =  -343.398616597
 Copying the excited state density for this state as the 1-particle RhoCI density.

 Excited State   2:      Singlet-A      6.1529 eV  201.51 nm  f=0.0004  <S**2>=0.000
      23 -> 25         0.65948
      24 -> 25         0.24727

 Excited State   3:      Singlet-A      7.7085 eV  160.84 nm  f=0.0268  <S**2>=0.000
      21 -> 25         0.13953
      22 -> 25         0.48535
      23 -> 26        -0.10394
      24 -> 26         0.44548
      24 -> 27         0.12015

 Excited State   4:      Singlet-A      7.8800 eV  157.34 nm  f=0.0005  <S**2>=0.000
      20 -> 25        -0.11276
      21 -> 25         0.66920
      24 -> 26        -0.14743

 Excited State   5:      Singlet-A      7.9543 eV  155.87 nm  f=0.0121  <S**2>=0.000
      21 -> 25         0.11691
      22 -> 25        -0.16774
      23 -> 26         0.49826
      23 -> 27        -0.23694
      24 -> 26         0.27938
      24 -> 27        -0.25381

 Excited State   6:      Singlet-A      8.4563 eV  146.62 nm  f=0.0783  <S**2>=0.000
      20 -> 25        -0.13317
      22 -> 25        -0.39451
      23 -> 26        -0.30770
      23 -> 27         0.15773
      24 -> 26         0.42332

 Excited State   7:      Singlet-A      8.6170 eV  143.88 nm  f=0.0137  <S**2>=0.000
      18 -> 25        -0.14594
      20 -> 25         0.63835
      21 -> 25         0.10390
      23 -> 26        -0.10568
      24 -> 27        -0.15857

 Excited State   8:      Singlet-A      8.6585 eV  143.19 nm  f=0.0194  <S**2>=0.000
      20 -> 25         0.14047
      22 -> 25        -0.11936
      22 -> 26         0.13947
      23 -> 26         0.27757
      23 -> 27         0.13215
      24 -> 27         0.57773

 Excited State   9:      Singlet-A      8.8393 eV  140.26 nm  f=0.0453  <S**2>=0.000
      22 -> 25         0.15764
      22 -> 26         0.11935
      22 -> 27         0.10503
      23 -> 26         0.19846
      23 -> 27         0.58458
      24 -> 27        -0.22278

 Excited State  10:      Singlet-A      8.9872 eV  137.96 nm  f=0.0013  <S**2>=0.000
      22 -> 26         0.60004
      22 -> 27         0.29002
      23 -> 27        -0.17346

 Excited State  11:      Singlet-A      9.1774 eV  135.10 nm  f=0.0004  <S**2>=0.000
      19 -> 25         0.69450

 Excited State  12:      Singlet-A      9.7900 eV  126.64 nm  f=0.0153  <S**2>=0.000
      17 -> 25        -0.12884
      18 -> 25        -0.27254
      21 -> 26        -0.21783
      22 -> 26        -0.26093
      22 -> 27         0.51224

 Excited State  13:      Singlet-A      9.8534 eV  125.83 nm  f=0.0688  <S**2>=0.000
      16 -> 25        -0.10121
      17 -> 25         0.28152
      18 -> 25         0.48980
      20 -> 25         0.14277
      21 -> 26        -0.12706
      22 -> 26        -0.11628
      22 -> 27         0.26503
      24 -> 28        -0.14881

 Excited State  14:      Singlet-A      9.9492 eV  124.62 nm  f=0.0121  <S**2>=0.000
      17 -> 25         0.10977
      21 -> 26         0.59051
      21 -> 27        -0.21852
      22 -> 26        -0.10657
      22 -> 27         0.23654

 Excited State  15:      Singlet-A     10.0067 eV  123.90 nm  f=0.0063  <S**2>=0.000
      17 -> 25         0.11672
      18 -> 25         0.13207
      23 -> 28         0.24281
      23 -> 29        -0.11465
      24 -> 28         0.55446
      24 -> 29        -0.22847

 Excited State  16:      Singlet-A     10.2045 eV  121.50 nm  f=0.0169  <S**2>=0.000
      16 -> 25         0.16938
      17 -> 25         0.42578
      18 -> 25        -0.17603
      23 -> 28        -0.16827
      23 -> 29         0.11952
      23 -> 30        -0.18759
      24 -> 28         0.17554
      24 -> 30        -0.34287

 The electronic state is 1-A.
 Alpha  occ. eigenvalues --  -19.19810 -19.15578 -19.14393 -10.32617 -10.26006
 Alpha  occ. eigenvalues --  -10.19237  -1.09447  -1.01619  -1.00716  -0.77769
 Alpha  occ. eigenvalues --   -0.67779  -0.60372  -0.51855  -0.48528  -0.47810
 Alpha  occ. eigenvalues --   -0.44603  -0.42487  -0.41056  -0.38933  -0.38147
 Alpha  occ. eigenvalues --   -0.34650  -0.31654  -0.28316  -0.27206
 Alpha virt. eigenvalues --   -0.01138   0.05949   0.07914   0.13347   0.14356
 Alpha virt. eigenvalues --    0.14764   0.17317   0.19651   0.21240   0.23319
 Alpha virt. eigenvalues --    0.31175   0.34417   0.51027   0.52932   0.55803

 Mulliken charges:
               1
     1  C    0.088823
     2  H    0.155034
     3  O   -0.627678
     4  H    0.395371
     5  C   -0.473333
     6  H    0.157951
     7  H    0.144482
     8  H    0.186459
     9  C    0.589018
    10  O   -0.462798
    11  O   -0.568226
    12  H    0.414898
 Sum of Mulliken charges =  -0.00000

 Dipole moment (field-independent basis, Debye):
    X=             -2.0076    Y=              1.3476    Z=             -0.0522  Tot=              2.4185
 Quadrupole moment (field-independent basis, Debye-Ang):
   XX=            -29.5233   YY=            -35.4757   ZZ=            -36.5785
   XY=              5.0675   XZ=              5.2039   YZ=              0.0988

 Normal termination of Gaussian 16 at Fri Feb 21 14:05:13 2025.
