 Gaussian 16, Revision C.02,
 Gaussian 16:  ES64L-G16RevC.02  7-Dec-2021

 ------------------------------
 # td=(nstat=16) b3lyp/6-31g(d)
 ------------------------------

 ------------------
 lactic_acid | No.4
 ------------------
 Symbolic Z-matrix:
 Charge =  0 Multiplicity = 1

                         Standard orientation:
 ---------------------------------------------------------------------
 Center     Atomic      Atomic             Coordinates (Angstroms)
 Number     Number       Type             X           Y           Z
 ---------------------------------------------------------------------
      1          6           0       -0.652855   -0.077209   -0.471392
      2          1           0       -0.706292   -0.169102   -1.563019
      3          8           0       -1.146885   -1.290648    0.167993
      4          1           0       -2.108054   -1.376899    0.004710
      5          6           0       -1.415156    1.162387    0.007190
      6          1           0       -1.011306    2.075493   -0.444126
      7          1           0       -2.470999    1.087516   -0.280094
      8          1           0       -1.345228    1.242181    1.094650
      9          6           0        0.823458   -0.002021   -0.133512
     10          8           0        1.735548    0.007205   -0.962893
     11          8           0        1.048350    0.098477    1.216710
     12          1           0        2.013091    0.121591    1.399687
 ---------------------------------------------------------------------

 SCF Done:  E(RB3LYP) =  -343.593272047     A.U. after   14 cycles

 Excitation energies and oscillator strengths:

 Excited State   1:      Singlet-A      5.3233 eV  232.91 nm  f=0.0018  <S**2>=0.000
      23 -> 25        -0.23398
      24 -> 25         0.66242
 This state for optimization and/or second-order correction.
 Total Energy, E(TD-HF/TD-DFT) =  -343.397645412
 Copying the excited state density for this state as the 1-particle RhoCI density.

 Excited State   2:      Singlet-A      6.2061 eV  199.78 nm  f=0.0017  <S**2>=0.000
      23 -> 25         0.66464
      24 -> 25         0.23559

 Excited State   3:      Singlet-A      7.7147 eV  160.71 nm  f=0.0248  <S**2>=0.000
      21 -> 25        -0.10664
      22 -> 25         0.47487
      23 -> 27        -0.10685
      24 -> 26         0.46796
      24 -> 27         0.12892

 Excited State   4:      Singlet-A      7.9025 eV  156.89 nm  f=0.0080  <S**2>=0.000
      21 -> 25         0.22130
      22 -> 25        -0.12248
      23 -> 26         0.52293
      23 -> 27        -0.23201
      24 -> 26         0.25407
      24 -> 27        -0.18851

 Excited State   5:      Singlet-A      7.9409 eV  156.13 nm  f=0.0016  <S**2>=0.000
      20 -> 25         0.11707
      21 -> 25         0.64823
      22 -> 25         0.10458
      23 -> 26        -0.18134
      24 -> 27         0.11985

 Excited State   6:      Singlet-A      8.4528 eV  146.68 nm  f=0.0837  <S**2>=0.000
      20 -> 25        -0.12032
      22 -> 25        -0.39944
      23 -> 26        -0.28366
      23 -> 27         0.13312
      24 -> 26         0.44247

 Excited State   7:      Singlet-A      8.6377 eV  143.54 nm  f=0.0173  <S**2>=0.000
      18 -> 25        -0.15253
      20 -> 25         0.59981
      23 -> 26        -0.12099
      24 -> 27        -0.27465

 Excited State   8:      Singlet-A      8.6780 eV  142.87 nm  f=0.0226  <S**2>=0.000
      20 -> 25         0.24798
      22 -> 25        -0.15816
      22 -> 26         0.14625
      23 -> 26         0.20805
      23 -> 27         0.15522
      24 -> 27         0.54231

 Excited State   9:      Singlet-A      8.8231 eV  140.52 nm  f=0.0434  <S**2>=0.000
      22 -> 25         0.16308
      23 -> 26         0.20260
      23 -> 27         0.59965
      24 -> 27        -0.20790

 Excited State  10:      Singlet-A      8.9489 eV  138.55 nm  f=0.0018  <S**2>=0.000
      22 -> 26         0.60099
      22 -> 27         0.31084
      23 -> 27        -0.12814

 Excited State  11:      Singlet-A      9.2515 eV  134.02 nm  f=0.0011  <S**2>=0.000
      19 -> 25         0.69515

 Excited State  12:      Singlet-A      9.7344 eV  127.37 nm  f=0.0067  <S**2>=0.000
      18 -> 25        -0.12003
      21 -> 26         0.22213
      22 -> 26        -0.30115
      22 -> 27         0.57144

 Excited State  13:      Singlet-A      9.8597 eV  125.75 nm  f=0.0835  <S**2>=0.000
      17 -> 25        -0.27163
      18 -> 25         0.53828
      20 -> 25         0.16488
      22 -> 27         0.12573
      24 -> 28        -0.23029

 Excited State  14:      Singlet-A      9.9034 eV  125.19 nm  f=0.0189  <S**2>=0.000
      21 -> 26         0.61839
      21 -> 27        -0.20175
      22 -> 27        -0.19992

 Excited State  15:      Singlet-A     10.0436 eV  123.45 nm  f=0.0122  <S**2>=0.000
      17 -> 25        -0.15514
      18 -> 25         0.17327
      23 -> 28         0.29845
      23 -> 30         0.12008
      24 -> 28         0.53358
      24 -> 29        -0.11885
      24 -> 30         0.12087

 Excited State  16:      Singlet-A     10.2087 eV  121.45 nm  f=0.0021  <S**2>=0.000
      17 -> 25         0.26931
      23 -> 28         0.40567
      23 -> 30         0.25537
      24 -> 28        -0.27452
      24 -> 29         0.14808
      24 -> 30         0.26432

 The electronic state is 1-A.
 Alpha  occ. eigenvalues --  -19.19737 -19.15546 -19.14352 -10.32580 -10.26016
 Alpha  occ. eigenvalues --  -10.19435  -1.09415  -1.01666  -1.00690  -0.77801
 Alpha  occ. eigenvalues --   -0.67878  -0.60313  -0.51733  -0.48573  -0.47693
 Alpha  occ. eigenvalues --   -0.45065  -0.42580  -0.40874  -0.39073  -0.38073
 Alpha  occ. eigenvalues --   -0.34638  -0.31560  -0.28232  -0.27263
 Alpha virt. eigenvalues --   -0.00964   0.05846   0.07876   0.13241   0.14451
 Alpha virt. eigenvalues --    0.14712   0.17445   0.19243   0.20883   0.23825
 Alpha virt. eigenvalues --    0.31132   0.34939   0.50749   0.53028   0.55535

 Mulliken charges:
               1
     1  C    0.090511
     2  H    0.155774
     3  O   -0.626207
     4  H    0.394830
     5  C   -0.478289
     6  H    0.161621
     7  H    0.146750
     8  H    0.185011
     9  C    0.586340
    10  O   -0.465350
    11  O   -0.565566
    12  H    0.414575
 Sum of Mulliken charges =  -0.00000

 Dipole moment (field-independent basis, Debye):
    X=             -2.0120    Y=              1.1136    Z=              0.6487  Tot=              2.3894
 Quadrupole moment (field-independent basis, Debye-Ang):
   XX=            -29.2475   YY=            -35.8622   ZZ=            -36.5134
   XY=              1.0990   XZ=              6.8341   YZ=              0.7876

 Normal termination of Gaussian 16 at Fri Feb 21 14:05:13 2025.
