 Gaussian 16, Revision C.02,
 Gaussian 16:  ES64L-G16RevC.02  7-Dec-2021

 ------------------------------
 # td=(nstat=16) b3lyp/6-31g(d)
 ------------------------------

 ------------------
 lactic_acid | No.8
 ------------------
 Symbolic Z-matrix:
 Charge =  0 Multiplicity = 1

                         Standard orientation:
 ---------------------------------------------------------------------
 Center     Atomic      Atomic             Coordinates (Angstroms)
 Number     Number       Type             X           Y           Z
 ---------------------------------------------------------------------
      1          6           0       -0.673659    0.122192   -0.408014
      2          1           0       -0.765920    0.530923   -1.424167
      3          8           0       -1.208728   -1.220000   -0.345364
      4          1           0       -2.179705   -1.190195   -0.460902
      5          6           0       -1.370856    1.069482    0.584109
      6          1           0       -0.921689    2.066421    0.547789
      7          1           0       -2.433124    1.163641    0.329236
      8          1           0       -1.287572    0.673333    1.600704
      9          6           0        0.813093    0.080571   -0.120414
     10          8           0        1.580809    0.988048   -0.459327
     11          8           0        1.225674   -1.008811    0.594785
     12          1           0        2.194505   -0.951481    0.752501
 ---------------------------------------------------------------------

 SCF Done:  E(RB3LYP) =  -343.594143570     A.U. after   14 cycles

 Excitation energies and oscillator strengths:

 Excited State   1:      Singlet-A      5.4966 eV  225.57 nm  f=0.0013  <S**2>=0.000
      23 -> 25        -0.16620
      24 -> 25         0.68400
 This state for optimization and/or second-order correction.
 Total Energy, E(TD-HF/TD-DFT) =  -343.392147558
 Copying the excited state density for this state as the 1-particle RhoCI density.

 Excited State   2:      Singlet-A      6.4871 eV  191.13 nm  f=0.0127  <S**2>=0.000
      23 -> 25         0.68150
      24 -> 25         0.16475

 Excited State   3:      Singlet-A      7.6881 eV  161.27 nm  f=0.0034  <S**2>=0.000
      22 -> 25         0.17529
      23 -> 26         0.52065
      23 -> 27        -0.20605
      24 -> 26         0.38365

 Excited State   4:      Singlet-A      7.7335 eV  160.32 nm  f=0.0103  <S**2>=0.000
      22 -> 25         0.39958
      23 -> 26        -0.38906
      24 -> 26         0.36616
      24 -> 27         0.20686

 Excited State   5:      Singlet-A      8.1847 eV  151.48 nm  f=0.0049  <S**2>=0.000
      20 -> 25         0.10213
      21 -> 25         0.69528

 Excited State   6:      Singlet-A      8.4593 eV  146.57 nm  f=0.0841  <S**2>=0.000
      22 -> 25        -0.37578
      23 -> 26        -0.15621
      24 -> 26         0.44482
      24 -> 27        -0.32721

 Excited State   7:      Singlet-A      8.6657 eV  143.07 nm  f=0.0103  <S**2>=0.000
      18 -> 25         0.15566
      20 -> 25         0.53802
      22 -> 26         0.18833
      23 -> 26        -0.10735
      23 -> 27        -0.27599
      24 -> 27        -0.19453

 Excited State   8:      Singlet-A      8.7123 eV  142.31 nm  f=0.0008  <S**2>=0.000
      18 -> 25         0.11199
      20 -> 25         0.39145
      22 -> 26        -0.21291
      22 -> 27        -0.10139
      23 -> 26         0.15631
      23 -> 27         0.43616
      24 -> 27         0.19707

 Excited State   9:      Singlet-A      8.7808 eV  141.20 nm  f=0.0866  <S**2>=0.000
      22 -> 25        -0.33965
      22 -> 26         0.13528
      23 -> 27        -0.25423
      24 -> 27         0.51236

 Excited State  10:      Singlet-A      8.9283 eV  138.87 nm  f=0.0020  <S**2>=0.000
      22 -> 26         0.54641
      22 -> 27         0.27515
      23 -> 27         0.32767

 Excited State  11:      Singlet-A      9.4890 eV  130.66 nm  f=0.0341  <S**2>=0.000
      18 -> 25         0.15136
      19 -> 25         0.67706

 Excited State  12:      Singlet-A      9.5877 eV  129.32 nm  f=0.0011  <S**2>=0.000
      22 -> 26        -0.30765
      22 -> 27         0.61680

 Excited State  13:      Singlet-A      9.7054 eV  127.75 nm  f=0.0101  <S**2>=0.000
      21 -> 26         0.65642
      21 -> 27        -0.15091
      24 -> 28         0.11517

 Excited State  14:      Singlet-A      9.8446 eV  125.94 nm  f=0.0563  <S**2>=0.000
      17 -> 25         0.13864
      18 -> 25         0.49404
      20 -> 25        -0.14848
      21 -> 26        -0.13696
      23 -> 28         0.19719
      23 -> 30         0.10401
      24 -> 28         0.34444

 Excited State  15:      Singlet-A      9.9281 eV  124.88 nm  f=0.0145  <S**2>=0.000
      18 -> 25        -0.24904
      23 -> 28         0.60955
      23 -> 30         0.14760

 Excited State  16:      Singlet-A     10.0412 eV  123.48 nm  f=0.0362  <S**2>=0.000
      17 -> 25        -0.25651
      18 -> 25        -0.21862
      19 -> 25         0.10455
      23 -> 28        -0.17025
      24 -> 28         0.56423

 The electronic state is 1-A.
 Alpha  occ. eigenvalues --  -19.19712 -19.15438 -19.13956 -10.32535 -10.26199
 Alpha  occ. eigenvalues --  -10.19595  -1.09412  -1.01853  -1.00470  -0.77681
 Alpha  occ. eigenvalues --   -0.68065  -0.59945  -0.51774  -0.49247  -0.46767
 Alpha  occ. eigenvalues --   -0.46281  -0.42316  -0.40697  -0.38959  -0.37659
 Alpha  occ. eigenvalues --   -0.34547  -0.31396  -0.27915  -0.27354
 Alpha virt. eigenvalues --   -0.00237   0.05490   0.07911   0.12657   0.14034
 Alpha virt. eigenvalues --    0.15294   0.16953   0.18822   0.21203   0.25212
 Alpha virt. eigenvalues --    0.31061   0.36809   0.50967   0.53091   0.55729

 Mulliken charges:
               1
     1  C    0.080917
     2  H    0.160033
     3  O   -0.619811
     4  H    0.394011
     5  C   -0.474783
     6  H    0.176090
     7  H    0.148788
     8  H    0.173036
     9  C    0.578409
    10  O   -0.477635
    11  O   -0.552066
    12  H    0.413009
 Sum of Mulliken charges =  -0.00000

 Dipole moment (field-independent basis, Debye):
    X=             -1.8612    Y=              0.0549    Z=              0.5528  Tot=              1.9423
 Quadrupole moment (field-independent basis, Debye-Ang):
   XX=            -27.6504   YY=            -39.2610   ZZ=            -34.4893
   XY=             -4.3836   XZ=              3.8380   YZ=              1.0013

 Normal termination of Gaussian 16 at Fri Feb 21 14:05:13 2025.
