 Gaussian 16, Revision C.02,
 Gaussian 16:  ES64L-G16RevC.02  7-Dec-2021

 ------------------------------
 # td=(nstat=16) b3lyp/6-31g(d)
 ------------------------------

 -------------------
 lactic_acid | No.19
 -------------------
 Symbolic Z-matrix:
 Charge =  0 Multiplicity = 1

                         Standard orientation:
 ---------------------------------------------------------------------
 Center     Atomic      Atomic             Coordinates (Angstroms)
 Number     Number       Type             X           Y           Z
 ---------------------------------------------------------------------
      1          6           0        0.639518   -0.260377    0.361134
      2          1           0        0.586905   -0.771674    1.329911
      3          8           0        0.999570   -1.214809   -0.690336
      4          1           0        1.835139   -1.663916   -0.449956
      5          6           0        1.603491    0.919179    0.406906
      6          1           0        1.319103    1.630841    1.189887
      7          1           0        2.620395    0.569932    0.618901
      8          1           0        1.595326    1.439412   -0.553845
      9          6           0       -0.767376    0.175812   -0.012614
     10          8           0       -1.060530    1.130490   -0.732512
     11          8           0       -1.713597   -0.644079    0.556731
     12          1           0       -2.614208   -0.385091    0.261489
 ---------------------------------------------------------------------

 SCF Done:  E(RB3LYP) =  -343.593025524     A.U. after   14 cycles

 Excitation energies and oscillator strengths:

 Excited State   1:      Singlet-A      5.2925 eV  234.26 nm  f=0.0004  <S**2>=0.000
      24 -> 25         0.69533
 This state for optimization and/or second-order correction.
 Total Energy, E(TD-HF/TD-DFT) =  -343.398528656
 Copying the excited state density for this state as the 1-particle RhoCI density.

 Excited State   2:      Singlet-A      6.0504 eV  204.92 nm  f=0.0011  <S**2>=0.000
      23 -> 25         0.69822

 Excited State   3:      Singlet-A      7.7500 eV  159.98 nm  f=0.0164  <S**2>=0.000
      21 -> 25         0.52972
      22 -> 25        -0.39233
      24 -> 26        -0.16829
      24 -> 27         0.13790

 Excited State   4:      Singlet-A      7.8001 eV  158.95 nm  f=0.0324  <S**2>=0.000
      21 -> 25         0.44344
      22 -> 25         0.43051
      24 -> 26         0.27919
      24 -> 27        -0.13827

 Excited State   5:      Singlet-A      8.1314 eV  152.48 nm  f=0.0061  <S**2>=0.000
      23 -> 26         0.32158
      23 -> 27         0.59780
      24 -> 27         0.12055

 Excited State   6:      Singlet-A      8.5233 eV  145.47 nm  f=0.0368  <S**2>=0.000
      22 -> 25        -0.21696
      23 -> 27        -0.10821
      24 -> 26         0.58594
      24 -> 27         0.26828

 Excited State   7:      Singlet-A      8.6001 eV  144.17 nm  f=0.0124  <S**2>=0.000
      18 -> 25        -0.20403
      20 -> 25         0.64696
      21 -> 25        -0.12224

 Excited State   8:      Singlet-A      8.7246 eV  142.11 nm  f=0.0370  <S**2>=0.000
      22 -> 25         0.24090
      23 -> 26        -0.24591
      24 -> 26        -0.16922
      24 -> 27         0.57050

 Excited State   9:      Singlet-A      8.7664 eV  141.43 nm  f=0.0379  <S**2>=0.000
      22 -> 25         0.13940
      22 -> 26         0.12726
      23 -> 26         0.55081
      23 -> 27        -0.32496
      24 -> 27         0.18982

 Excited State  10:      Singlet-A      9.0466 eV  137.05 nm  f=0.0060  <S**2>=0.000
      19 -> 25         0.69557

 Excited State  11:      Singlet-A      9.1328 eV  135.76 nm  f=0.0026  <S**2>=0.000
      22 -> 26         0.62777
      22 -> 27        -0.25837
      23 -> 26        -0.15233

 Excited State  12:      Singlet-A      9.4493 eV  131.21 nm  f=0.0245  <S**2>=0.000
      17 -> 25        -0.16199
      18 -> 25         0.63891
      20 -> 25         0.21284

 Excited State  13:      Singlet-A      9.8656 eV  125.67 nm  f=0.0195  <S**2>=0.000
      22 -> 26         0.24854
      22 -> 27         0.60416
      23 -> 28        -0.19768

 Excited State  14:      Singlet-A      9.9187 eV  125.00 nm  f=0.0124  <S**2>=0.000
      22 -> 27         0.17195
      23 -> 28         0.63749
      23 -> 29        -0.13348
      24 -> 28         0.10620

 Excited State  15:      Singlet-A     10.0817 eV  122.98 nm  f=0.0023  <S**2>=0.000
      17 -> 25         0.21283
      24 -> 28         0.65053

 Excited State  16:      Singlet-A     10.1406 eV  122.27 nm  f=0.0276  <S**2>=0.000
      16 -> 25         0.11601
      21 -> 26         0.34591
      21 -> 27         0.57275

 The electronic state is 1-A.
 Alpha  occ. eigenvalues --  -19.19916 -19.15618 -19.14536 -10.32671 -10.25988
 Alpha  occ. eigenvalues --  -10.18635  -1.09480  -1.01654  -1.00770  -0.77508
 Alpha  occ. eigenvalues --   -0.68244  -0.58821  -0.52684  -0.49703  -0.47470
 Alpha  occ. eigenvalues --   -0.43596  -0.42242  -0.40856  -0.38857  -0.37846
 Alpha  occ. eigenvalues --   -0.34623  -0.31791  -0.28082  -0.27637
 Alpha virt. eigenvalues --   -0.01407   0.07001   0.07350   0.12880   0.14465
 Alpha virt. eigenvalues --    0.15051   0.17270   0.20800   0.21777   0.23269
 Alpha virt. eigenvalues --    0.31118   0.33557   0.52530   0.54127   0.54806

 Mulliken charges:
               1
     1  C    0.083027
     2  H    0.148795
     3  O   -0.628047
     4  H    0.396804
     5  C   -0.457721
     6  H    0.153552
     7  H    0.139501
     8  H    0.187682
     9  C    0.595653
    10  O   -0.457193
    11  O   -0.575457
    12  H    0.413403
 Sum of Mulliken charges =  -0.00000

 Dipole moment (field-independent basis, Debye):
    X=              1.0050    Y=             -0.9765    Z=              2.0815  Tot=              2.5092
 Quadrupole moment (field-independent basis, Debye-Ang):
   XX=            -25.6263   YY=            -37.2193   ZZ=            -37.3764
   XY=             -0.8059   XZ=              0.2080   YZ=              1.3076

 Normal termination of Gaussian 16 at Fri Feb 21 14:05:24 2025.
