 Gaussian 16, Revision C.02,
 Gaussian 16:  ES64L-G16RevC.02  7-Dec-2021

 ------------------------------
 # td=(nstat=16) b3lyp/6-31g(d)
 ------------------------------

 -------------------
 lactic_acid | No.10
 -------------------
 Symbolic Z-matrix:
 Charge =  0 Multiplicity = 1

                         Standard orientation:
 ---------------------------------------------------------------------
 Center     Atomic      Atomic             Coordinates (Angstroms)
 Number     Number       Type             X           Y           Z
 ---------------------------------------------------------------------
      1          6           0       -0.680301    0.038150   -0.396420
      2          1           0       -0.782831    0.295680   -1.462433
      3          8           0       -1.149595   -1.307614   -0.154034
      4          1           0       -2.110660   -1.352856   -0.330806
      5          6           0       -1.440533    1.076127    0.444580
      6          1           0       -1.024105    2.074778    0.288240
      7          1           0       -2.498335    1.091958    0.157591
      8          1           0       -1.370340    0.820827    1.506394
      9          6           0        0.804681    0.118626   -0.101194
     10          8           0        1.457323    1.152897   -0.286424
     11          8           0        1.362434   -1.026242    0.391548
     12          1           0        2.321895   -0.880129    0.550500
 ---------------------------------------------------------------------

 SCF Done:  E(RB3LYP) =  -343.594175511     A.U. after   13 cycles

 Excitation energies and oscillator strengths:

 Excited State   1:      Singlet-A      5.5299 eV  224.21 nm  f=0.0007  <S**2>=0.000
      24 -> 25         0.69726
 This state for optimization and/or second-order correction.
 Total Energy, E(TD-HF/TD-DFT) =  -343.390954357
 Copying the excited state density for this state as the 1-particle RhoCI density.

 Excited State   2:      Singlet-A      6.5286 eV  189.91 nm  f=0.0168  <S**2>=0.000
      23 -> 25         0.69344

 Excited State   3:      Singlet-A      7.6787 eV  161.46 nm  f=0.0015  <S**2>=0.000
      23 -> 26         0.64088
      23 -> 27        -0.21342
      24 -> 26         0.17875

 Excited State   4:      Singlet-A      7.7380 eV  160.23 nm  f=0.0089  <S**2>=0.000
      22 -> 25         0.43166
      23 -> 26        -0.16228
      24 -> 26         0.49024
      24 -> 27         0.19481

 Excited State   5:      Singlet-A      8.2262 eV  150.72 nm  f=0.0065  <S**2>=0.000
      21 -> 25         0.69542

 Excited State   6:      Singlet-A      8.4633 eV  146.50 nm  f=0.0773  <S**2>=0.000
      22 -> 25        -0.37261
      24 -> 26         0.45345
      24 -> 27        -0.34762

 Excited State   7:      Singlet-A      8.6505 eV  143.33 nm  f=0.0034  <S**2>=0.000
      18 -> 25        -0.11032
      20 -> 25        -0.36324
      22 -> 26        -0.25990
      22 -> 27        -0.12160
      23 -> 26         0.16637
      23 -> 27         0.47360
      24 -> 27         0.11135

 Excited State   8:      Singlet-A      8.6856 eV  142.75 nm  f=0.0005  <S**2>=0.000
      18 -> 25         0.15471
      20 -> 25         0.55327
      22 -> 26        -0.13732
      23 -> 26         0.11009
      23 -> 27         0.28532
      24 -> 27         0.19285

 Excited State   9:      Singlet-A      8.8026 eV  140.85 nm  f=0.0892  <S**2>=0.000
      22 -> 25        -0.34355
      23 -> 27        -0.22764
      24 -> 27         0.52069

 Excited State  10:      Singlet-A      8.9745 eV  138.15 nm  f=0.0023  <S**2>=0.000
      22 -> 26         0.56247
      22 -> 27         0.26955
      23 -> 27         0.29180

 Excited State  11:      Singlet-A      9.4869 eV  130.69 nm  f=0.0477  <S**2>=0.000
      18 -> 25         0.10084
      19 -> 25         0.68264

 Excited State  12:      Singlet-A      9.6043 eV  129.09 nm  f=0.0009  <S**2>=0.000
      21 -> 26        -0.18552
      22 -> 26        -0.28533
      22 -> 27         0.59944

 Excited State  13:      Singlet-A      9.7193 eV  127.57 nm  f=0.0034  <S**2>=0.000
      18 -> 25         0.18737
      21 -> 26         0.55529
      21 -> 27        -0.13245
      22 -> 27         0.16477
      23 -> 28         0.22108
      24 -> 28         0.19074

 Excited State  14:      Singlet-A      9.7864 eV  126.69 nm  f=0.0153  <S**2>=0.000
      21 -> 26        -0.27162
      23 -> 28         0.59883
      23 -> 30         0.17761

 Excited State  15:      Singlet-A      9.8113 eV  126.37 nm  f=0.0348  <S**2>=0.000
      17 -> 25         0.12839
      18 -> 25         0.57726
      20 -> 25        -0.16757
      21 -> 26        -0.17490
      23 -> 28        -0.18855
      24 -> 28         0.17863

 Excited State  16:      Singlet-A      9.9400 eV  124.73 nm  f=0.0225  <S**2>=0.000
      17 -> 25        -0.22245
      18 -> 25        -0.17141
      21 -> 26        -0.10275
      24 -> 28         0.60679
      24 -> 29        -0.12144

 The electronic state is 1-A.
 Alpha  occ. eigenvalues --  -19.19759 -19.15398 -19.13908 -10.32589 -10.26288
 Alpha  occ. eigenvalues --  -10.19272  -1.09467  -1.01845  -1.00457  -0.77513
 Alpha  occ. eigenvalues --   -0.68086  -0.59666  -0.51888  -0.49737  -0.47022
 Alpha  occ. eigenvalues --   -0.45630  -0.41989  -0.40683  -0.38747  -0.37565
 Alpha  occ. eigenvalues --   -0.34568  -0.31456  -0.27779  -0.27398
 Alpha virt. eigenvalues --   -0.00143   0.05559   0.07959   0.12444   0.13828
 Alpha virt. eigenvalues --    0.15289   0.17006   0.19040   0.22381   0.24988
 Alpha virt. eigenvalues --    0.31009   0.37189   0.51425   0.53097   0.56143

 Mulliken charges:
               1
     1  C    0.070656
     2  H    0.161803
     3  O   -0.618817
     4  H    0.394136
     5  C   -0.467940
     6  H    0.180102
     7  H    0.144899
     8  H    0.169298
     9  C    0.583039
    10  O   -0.479417
    11  O   -0.550650
    12  H    0.412891
 Sum of Mulliken charges =  -0.00000

 Dipole moment (field-independent basis, Debye):
    X=             -1.7097    Y=             -0.2196    Z=             -0.0103  Tot=              1.7238
 Quadrupole moment (field-independent basis, Debye-Ang):
   XX=            -26.7759   YY=            -40.3168   ZZ=            -34.0898
   XY=             -3.6147   XZ=              3.1112   YZ=              1.1188

 Normal termination of Gaussian 16 at Fri Feb 21 14:06:01 2025.
