 Gaussian 16, Revision C.02,
 Gaussian 16:  ES64L-G16RevC.02  7-Dec-2021

 ------------------------------
 # td=(nstat=16) b3lyp/6-31g(d)
 ------------------------------

 ------------------
 lactic_acid | No.7
 ------------------
 Symbolic Z-matrix:
 Charge =  0 Multiplicity = 1

                         Standard orientation:
 ---------------------------------------------------------------------
 Center     Atomic      Atomic             Coordinates (Angstroms)
 Number     Number       Type             X           Y           Z
 ---------------------------------------------------------------------
      1          6           0       -0.667790    0.157347   -0.413225
      2          1           0       -0.748684    0.626167   -1.403072
      3          8           0       -1.217338   -1.181922   -0.432798
      4          1           0       -2.189601   -1.135286   -0.530805
      5          6           0       -1.356927    1.048123    0.634601
      6          1           0       -0.902980    2.043774    0.658956
      7          1           0       -2.418548    1.165741    0.386282
      8          1           0       -1.275111    0.590501    1.624929
      9          6           0        0.816430    0.069919   -0.123943
     10          8           0        1.634018    0.895904   -0.542661
     11          8           0        1.164581   -0.963314    0.702648
     12          1           0        2.134558   -0.948580    0.861602
 ---------------------------------------------------------------------

 SCF Done:  E(RB3LYP) =  -343.594072166     A.U. after   14 cycles

 Excitation energies and oscillator strengths:

 Excited State   1:      Singlet-A      5.4598 eV  227.08 nm  f=0.0016  <S**2>=0.000
      23 -> 25        -0.17535
      24 -> 25         0.68145
 This state for optimization and/or second-order correction.
 Total Energy, E(TD-HF/TD-DFT) =  -343.393427374
 Copying the excited state density for this state as the 1-particle RhoCI density.

 Excited State   2:      Singlet-A      6.4287 eV  192.86 nm  f=0.0096  <S**2>=0.000
      23 -> 25         0.68083
      24 -> 25         0.17438

 Excited State   3:      Singlet-A      7.7089 eV  160.83 nm  f=0.0101  <S**2>=0.000
      22 -> 25         0.36498
      23 -> 26         0.23275
      23 -> 27        -0.16246
      24 -> 26         0.51595
      24 -> 27         0.10474

 Excited State   4:      Singlet-A      7.7565 eV  159.85 nm  f=0.0079  <S**2>=0.000
      22 -> 25        -0.26029
      23 -> 26         0.59634
      23 -> 27        -0.15108
      24 -> 27        -0.18506

 Excited State   5:      Singlet-A      8.1357 eV  152.39 nm  f=0.0037  <S**2>=0.000
      20 -> 25         0.11177
      21 -> 25         0.69255

 Excited State   6:      Singlet-A      8.4555 eV  146.63 nm  f=0.0864  <S**2>=0.000
      22 -> 25        -0.38301
      23 -> 26        -0.17762
      24 -> 26         0.45276
      24 -> 27        -0.29033

 Excited State   7:      Singlet-A      8.6690 eV  143.02 nm  f=0.0177  <S**2>=0.000
      18 -> 25        -0.17004
      20 -> 25         0.59349
      22 -> 26         0.11026
      23 -> 27        -0.14057
      24 -> 27        -0.23754

 Excited State   8:      Singlet-A      8.7374 eV  141.90 nm  f=0.0128  <S**2>=0.000
      20 -> 25         0.28590
      22 -> 25        -0.18911
      22 -> 26        -0.12049
      23 -> 26         0.16146
      23 -> 27         0.38527
      24 -> 26         0.11243
      24 -> 27         0.38881

 Excited State   9:      Singlet-A      8.7693 eV  141.38 nm  f=0.0627  <S**2>=0.000
      22 -> 25         0.26037
      22 -> 26        -0.26008
      23 -> 26         0.11270
      23 -> 27         0.41506
      24 -> 27        -0.39054

 Excited State  10:      Singlet-A      8.9048 eV  139.23 nm  f=0.0058  <S**2>=0.000
      22 -> 26         0.54329
      22 -> 27         0.29511
      23 -> 27         0.30234

 Excited State  11:      Singlet-A      9.4570 eV  131.10 nm  f=0.0224  <S**2>=0.000
      18 -> 25        -0.14318
      19 -> 25         0.68160

 Excited State  12:      Singlet-A      9.5940 eV  129.23 nm  f=0.0012  <S**2>=0.000
      21 -> 26         0.15284
      22 -> 26        -0.31435
      22 -> 27         0.60135

 Excited State  13:      Singlet-A      9.7442 eV  127.24 nm  f=0.0084  <S**2>=0.000
      21 -> 26         0.64210
      21 -> 27        -0.15651
      22 -> 27        -0.13250
      24 -> 28         0.11836

 Excited State  14:      Singlet-A      9.8555 eV  125.80 nm  f=0.0726  <S**2>=0.000
      17 -> 25        -0.15876
      18 -> 25         0.49585
      19 -> 25         0.10174
      20 -> 25         0.15291
      21 -> 26         0.13658
      23 -> 28        -0.13923
      24 -> 28        -0.35539

 Excited State  15:      Singlet-A      9.9827 eV  124.20 nm  f=0.0198  <S**2>=0.000
      17 -> 25        -0.11644
      18 -> 25         0.23509
      23 -> 28         0.59446
      23 -> 30         0.14411
      24 -> 28         0.14470

 Excited State  16:      Singlet-A     10.0761 eV  123.05 nm  f=0.0299  <S**2>=0.000
      17 -> 25        -0.24561
      18 -> 25         0.19351
      23 -> 28        -0.25642
      24 -> 28         0.54911

 The electronic state is 1-A.
 Alpha  occ. eigenvalues --  -19.19682 -19.15464 -19.14040 -10.32521 -10.26147
 Alpha  occ. eigenvalues --  -10.19678  -1.09386  -1.01834  -1.00505  -0.77753
 Alpha  occ. eigenvalues --   -0.68046  -0.60054  -0.51736  -0.49003  -0.46963
 Alpha  occ. eigenvalues --   -0.46175  -0.42462  -0.40672  -0.39095  -0.37746
 Alpha  occ. eigenvalues --   -0.34567  -0.31374  -0.28003  -0.27334
 Alpha virt. eigenvalues --   -0.00375   0.05547   0.07884   0.12758   0.14167
 Alpha virt. eigenvalues --    0.15192   0.17090   0.18862   0.20724   0.25078
 Alpha virt. eigenvalues --    0.31076   0.36413   0.50784   0.53113   0.55525

 Mulliken charges:
               1
     1  C    0.085086
     2  H    0.158972
     3  O   -0.620744
     4  H    0.394076
     5  C   -0.477913
     6  H    0.173131
     7  H    0.149794
     8  H    0.175853
     9  C    0.578362
    10  O   -0.474969
    11  O   -0.554873
    12  H    0.413224
 Sum of Mulliken charges =  -0.00000

 Dipole moment (field-independent basis, Debye):
    X=             -1.9201    Y=              0.1793    Z=              0.7978  Tot=              2.0870
 Quadrupole moment (field-independent basis, Debye-Ang):
   XX=            -28.1127   YY=            -38.6179   ZZ=            -34.7737
   XY=             -4.4343   XZ=              4.2762   YZ=              0.9089

 Normal termination of Gaussian 16 at Fri Feb 21 14:05:13 2025.
