 Gaussian 16, Revision C.02,
 Gaussian 16:  ES64L-G16RevC.02  7-Dec-2021

 ------------------------------
 # td=(nstat=16) b3lyp/6-31g(d)
 ------------------------------

 -------------------
 lactic_acid | No.13
 -------------------
 Symbolic Z-matrix:
 Charge =  0 Multiplicity = 1

                         Standard orientation:
 ---------------------------------------------------------------------
 Center     Atomic      Atomic             Coordinates (Angstroms)
 Number     Number       Type             X           Y           Z
 ---------------------------------------------------------------------
      1          6           0        0.672730   -0.090192    0.379628
      2          1           0        0.743006   -0.102516    1.481158
      3          8           0        1.020179   -1.393495   -0.153533
      4          1           0        1.932386   -1.620860    0.116551
      5          6           0        1.573002    1.014207   -0.178812
      6          1           0        1.244942    1.995686    0.172023
      7          1           0        2.609065    0.855063    0.140875
      8          1           0        1.538161    1.005414   -1.272128
      9          6           0       -0.786347    0.184655    0.062254
     10          8           0       -1.264641    1.322335   -0.010735
     11          8           0       -1.548503   -0.941213   -0.079996
     12          1           0       -2.480145   -0.685817   -0.262791
 ---------------------------------------------------------------------

 SCF Done:  E(RB3LYP) =  -343.594094855     A.U. after   14 cycles

 Excitation energies and oscillator strengths:

 Excited State   1:      Singlet-A      5.4563 eV  227.23 nm  f=0.0005  <S**2>=0.000
      24 -> 25         0.70057
 This state for optimization and/or second-order correction.
 Total Energy, E(TD-HF/TD-DFT) =  -343.393578895
 Copying the excited state density for this state as the 1-particle RhoCI density.

 Excited State   2:      Singlet-A      6.3669 eV  194.73 nm  f=0.0130  <S**2>=0.000
      23 -> 25         0.70153

 Excited State   3:      Singlet-A      7.7580 eV  159.81 nm  f=0.0245  <S**2>=0.000
      22 -> 25         0.49830
      24 -> 26        -0.44474
      24 -> 27        -0.17974

 Excited State   4:      Singlet-A      7.9088 eV  156.77 nm  f=0.0016  <S**2>=0.000
      23 -> 26         0.62754
      23 -> 27        -0.30596

 Excited State   5:      Singlet-A      8.1326 eV  152.45 nm  f=0.0027  <S**2>=0.000
      20 -> 25         0.10572
      21 -> 25         0.68333

 Excited State   6:      Singlet-A      8.4716 eV  146.35 nm  f=0.0765  <S**2>=0.000
      22 -> 25         0.36531
      24 -> 26         0.52600
      24 -> 27        -0.23907

 Excited State   7:      Singlet-A      8.6380 eV  143.53 nm  f=0.0007  <S**2>=0.000
      18 -> 25         0.19867
      20 -> 25         0.63682
      24 -> 27         0.14811

 Excited State   8:      Singlet-A      8.7285 eV  142.04 nm  f=0.0120  <S**2>=0.000
      22 -> 25         0.10184
      22 -> 26        -0.19882
      23 -> 26         0.26296
      23 -> 27         0.53813
      24 -> 27         0.27701

 Excited State   9:      Singlet-A      8.7983 eV  140.92 nm  f=0.0561  <S**2>=0.000
      20 -> 25        -0.14369
      22 -> 25         0.23959
      23 -> 26        -0.14860
      23 -> 27        -0.27548
      24 -> 27         0.53066

 Excited State  10:      Singlet-A      8.9986 eV  137.78 nm  f=0.0093  <S**2>=0.000
      22 -> 26         0.56978
      22 -> 27         0.33463
      23 -> 27         0.15201

 Excited State  11:      Singlet-A      9.3576 eV  132.50 nm  f=0.0243  <S**2>=0.000
      19 -> 25         0.68492
      24 -> 28         0.10879

 Excited State  12:      Singlet-A      9.5783 eV  129.44 nm  f=0.0088  <S**2>=0.000
      18 -> 25         0.13214
      23 -> 28         0.66639
      23 -> 30         0.10342

 Excited State  13:      Singlet-A      9.6140 eV  128.96 nm  f=0.0047  <S**2>=0.000
      18 -> 25         0.64717
      20 -> 25        -0.20187
      23 -> 28        -0.13654

 Excited State  14:      Singlet-A      9.7020 eV  127.79 nm  f=0.0119  <S**2>=0.000
      22 -> 26        -0.18521
      22 -> 27         0.36338
      24 -> 28         0.55130

 Excited State  15:      Singlet-A      9.7429 eV  127.26 nm  f=0.0084  <S**2>=0.000
      17 -> 25        -0.14199
      21 -> 26         0.23460
      22 -> 26        -0.25437
      22 -> 27         0.43632
      24 -> 28        -0.36242

 Excited State  16:      Singlet-A     10.0226 eV  123.70 nm  f=0.0181  <S**2>=0.000
      21 -> 26         0.60615
      21 -> 27        -0.21403
      22 -> 26         0.10384
      22 -> 27        -0.18920

 The electronic state is 1-A.
 Alpha  occ. eigenvalues --  -19.19677 -19.15416 -19.14136 -10.32643 -10.26320
 Alpha  occ. eigenvalues --  -10.18731  -1.09468  -1.01756  -1.00541  -0.77362
 Alpha  occ. eigenvalues --   -0.68128  -0.59073  -0.52282  -0.50157  -0.47407
 Alpha  occ. eigenvalues --   -0.44277  -0.41709  -0.40577  -0.38774  -0.37583
 Alpha  occ. eigenvalues --   -0.34700  -0.31423  -0.27871  -0.27430
 Alpha virt. eigenvalues --   -0.00527   0.06209   0.07995   0.11826   0.13910
 Alpha virt. eigenvalues --    0.15362   0.17141   0.20206   0.23399   0.24141
 Alpha virt. eigenvalues --    0.30924   0.36064   0.52244   0.53151   0.56596

 Mulliken charges:
               1
     1  C    0.058322
     2  H    0.160581
     3  O   -0.616977
     4  H    0.394868
     5  C   -0.455382
     6  H    0.177476
     7  H    0.138262
     8  H    0.169154
     9  C    0.590873
    10  O   -0.474932
    11  O   -0.555206
    12  H    0.412962
 Sum of Mulliken charges =  -0.00000

 Dipole moment (field-independent basis, Debye):
    X=              1.4364    Y=             -0.6346    Z=              0.8789  Tot=              1.7996
 Quadrupole moment (field-independent basis, Debye-Ang):
   XX=            -26.0992   YY=            -40.6266   ZZ=            -34.1488
   XY=              1.5975   XZ=              2.0865   YZ=             -0.8742

 Normal termination of Gaussian 16 at Fri Feb 21 14:05:05 2025.
