 Gaussian 16, Revision C.02,
 Gaussian 16:  ES64L-G16RevC.02  7-Dec-2021

 ------------------------------
 # td=(nstat=16) b3lyp/6-31g(d)
 ------------------------------

 -------------------
 lactic_acid | No.16
 -------------------
 Symbolic Z-matrix:
 Charge =  0 Multiplicity = 1

                         Standard orientation:
 ---------------------------------------------------------------------
 Center     Atomic      Atomic             Coordinates (Angstroms)
 Number     Number       Type             X           Y           Z
 ---------------------------------------------------------------------
      1          6           0        0.653843   -0.198233    0.370596
      2          1           0        0.657641   -0.498492    1.429710
      3          8           0        0.934360   -1.356298   -0.473040
      4          1           0        1.761890   -1.784129   -0.175070
      5          6           0        1.647524    0.931406    0.126129
      6          1           0        1.402125    1.809798    0.730523
      7          1           0        2.660498    0.604378    0.386462
      8          1           0        1.628103    1.224541   -0.926382
      9          6           0       -0.768309    0.217563    0.034514
     10          8           0       -1.112427    1.334265   -0.360121
     11          8           0       -1.664305   -0.796954    0.253575
     12          1           0       -2.569623   -0.508620    0.004015
 ---------------------------------------------------------------------

 SCF Done:  E(RB3LYP) =  -343.593748715     A.U. after   14 cycles

 Excitation energies and oscillator strengths:

 Excited State   1:      Singlet-A      5.3237 eV  232.89 nm  f=0.0005  <S**2>=0.000
      24 -> 25         0.70057
 This state for optimization and/or second-order correction.
 Total Energy, E(TD-HF/TD-DFT) =  -343.398107545
 Copying the excited state density for this state as the 1-particle RhoCI density.

 Excited State   2:      Singlet-A      6.1001 eV  203.25 nm  f=0.0058  <S**2>=0.000
      23 -> 25         0.70534

 Excited State   3:      Singlet-A      7.7532 eV  159.91 nm  f=0.0450  <S**2>=0.000
      21 -> 25        -0.12732
      22 -> 25         0.56896
      24 -> 26        -0.34986
      24 -> 27         0.14462

 Excited State   4:      Singlet-A      7.8465 eV  158.01 nm  f=0.0007  <S**2>=0.000
      20 -> 25         0.10825
      21 -> 25         0.67797
      22 -> 25         0.11720

 Excited State   5:      Singlet-A      8.1602 eV  151.94 nm  f=0.0021  <S**2>=0.000
      23 -> 26         0.45883
      23 -> 27         0.52271

 Excited State   6:      Singlet-A      8.5282 eV  145.38 nm  f=0.0665  <S**2>=0.000
      20 -> 25        -0.10592
      22 -> 25         0.29456
      24 -> 26         0.58843
      24 -> 27         0.16480

 Excited State   7:      Singlet-A      8.5726 eV  144.63 nm  f=0.0131  <S**2>=0.000
      18 -> 25         0.20472
      20 -> 25         0.64100
      21 -> 25        -0.12311
      24 -> 26         0.11236

 Excited State   8:      Singlet-A      8.7469 eV  141.75 nm  f=0.0061  <S**2>=0.000
      22 -> 26        -0.12331
      23 -> 26         0.51231
      23 -> 27        -0.44930

 Excited State   9:      Singlet-A      8.7907 eV  141.04 nm  f=0.0349  <S**2>=0.000
      22 -> 25        -0.18309
      24 -> 27         0.65124

 Excited State  10:      Singlet-A      9.0781 eV  136.58 nm  f=0.0013  <S**2>=0.000
      22 -> 26         0.62352
      22 -> 27        -0.26894
      23 -> 26         0.11735

 Excited State  11:      Singlet-A      9.1320 eV  135.77 nm  f=0.0118  <S**2>=0.000
      19 -> 25         0.68533
      20 -> 25         0.11126

 Excited State  12:      Singlet-A      9.4162 eV  131.67 nm  f=0.0047  <S**2>=0.000
      18 -> 25         0.66431
      20 -> 25        -0.20446

 Excited State  13:      Singlet-A      9.6375 eV  128.65 nm  f=0.0130  <S**2>=0.000
      23 -> 28         0.67912

 Excited State  14:      Singlet-A      9.7839 eV  126.72 nm  f=0.0098  <S**2>=0.000
      17 -> 25         0.15251
      22 -> 27        -0.14279
      24 -> 28         0.66031

 Excited State  15:      Singlet-A      9.9444 eV  124.68 nm  f=0.0198  <S**2>=0.000
      17 -> 25         0.18449
      21 -> 26        -0.10280
      22 -> 26         0.25121
      22 -> 27         0.60071

 Excited State  16:      Singlet-A     10.1469 eV  122.19 nm  f=0.0011  <S**2>=0.000
      16 -> 25         0.60537
      17 -> 25         0.28098
      21 -> 26        -0.10647
      22 -> 27        -0.10667
      24 -> 28        -0.10042

 The electronic state is 1-A.
 Alpha  occ. eigenvalues --  -19.19642 -19.15524 -19.14487 -10.32642 -10.26136
 Alpha  occ. eigenvalues --  -10.18469  -1.09435  -1.01599  -1.00751  -0.77374
 Alpha  occ. eigenvalues --   -0.68184  -0.58639  -0.52746  -0.50085  -0.47509
 Alpha  occ. eigenvalues --   -0.43130  -0.42000  -0.40724  -0.38926  -0.37673
 Alpha  occ. eigenvalues --   -0.34609  -0.31609  -0.28013  -0.27603
 Alpha virt. eigenvalues --   -0.01267   0.06880   0.07882   0.11939   0.14387
 Alpha virt. eigenvalues --    0.15267   0.16999   0.22017   0.22557   0.23109
 Alpha virt. eigenvalues --    0.30865   0.34161   0.52729   0.53442   0.56301

 Mulliken charges:
               1
     1  C    0.066968
     2  H    0.152326
     3  O   -0.622405
     4  H    0.396441
     5  C   -0.445967
     6  H    0.161970
     7  H    0.135941
     8  H    0.177143
     9  C    0.595035
    10  O   -0.465030
    11  O   -0.566092
    12  H    0.413669
 Sum of Mulliken charges =  -0.00000

 Dipole moment (field-independent basis, Debye):
    X=              1.1367    Y=             -1.0089    Z=              1.5807  Tot=              2.1928
 Quadrupole moment (field-independent basis, Debye-Ang):
   XX=            -26.0951   YY=            -39.0455   ZZ=            -35.3589
   XY=             -0.1356   XZ=              1.1552   YZ=              0.1064

 Normal termination of Gaussian 16 at Fri Feb 21 14:05:24 2025.
