 Gaussian 16, Revision C.02,
 Gaussian 16:  ES64L-G16RevC.02  7-Dec-2021

 ------------------------------
 # td=(nstat=16) b3lyp/6-31g(d)
 ------------------------------

 -------------------
 lactic_acid | No.14
 -------------------
 Symbolic Z-matrix:
 Charge =  0 Multiplicity = 1

                         Standard orientation:
 ---------------------------------------------------------------------
 Center     Atomic      Atomic             Coordinates (Angstroms)
 Number     Number       Type             X           Y           Z
 ---------------------------------------------------------------------
      1          6           0        0.666753   -0.129532    0.376313
      2          1           0        0.716857   -0.239219    1.473160
      3          8           0        0.981596   -1.396816   -0.261836
      4          1           0        1.867604   -1.693824    0.027255
      5          6           0        1.607553    0.984949   -0.079407
      6          1           0        1.314596    1.944646    0.353744
      7          1           0        2.635024    0.760486    0.228530
      8          1           0        1.578273    1.074654   -1.168866
      9          6           0       -0.779608    0.201184    0.051947
     10          8           0       -1.205969    1.347499   -0.122793
     11          8           0       -1.596019   -0.896527    0.030116
     12          1           0       -2.517409   -0.619601   -0.170837
 ---------------------------------------------------------------------

 SCF Done:  E(RB3LYP) =  -343.594032817     A.U. after   14 cycles

 Excitation energies and oscillator strengths:

 Excited State   1:      Singlet-A      5.4090 eV  229.22 nm  f=0.0005  <S**2>=0.000
      24 -> 25         0.70016
 This state for optimization and/or second-order correction.
 Total Energy, E(TD-HF/TD-DFT) =  -343.395254739
 Copying the excited state density for this state as the 1-particle RhoCI density.

 Excited State   2:      Singlet-A      6.2696 eV  197.75 nm  f=0.0104  <S**2>=0.000
      23 -> 25         0.70359

 Excited State   3:      Singlet-A      7.7571 eV  159.83 nm  f=0.0335  <S**2>=0.000
      21 -> 25        -0.11083
      22 -> 25         0.52956
      24 -> 26        -0.40527
      24 -> 27        -0.16687

 Excited State   4:      Singlet-A      8.0146 eV  154.70 nm  f=0.0013  <S**2>=0.000
      21 -> 25        -0.11319
      23 -> 26         0.58021
      23 -> 27        -0.36960

 Excited State   5:      Singlet-A      8.0470 eV  154.07 nm  f=0.0009  <S**2>=0.000
      20 -> 25         0.11436
      21 -> 25         0.66988
      23 -> 26         0.10197

 Excited State   6:      Singlet-A      8.4894 eV  146.05 nm  f=0.0770  <S**2>=0.000
      22 -> 25         0.34695
      24 -> 26         0.55880
      24 -> 27        -0.18807

 Excited State   7:      Singlet-A      8.6158 eV  143.90 nm  f=0.0017  <S**2>=0.000
      18 -> 25         0.20514
      20 -> 25         0.64403
      21 -> 25        -0.10996
      24 -> 27         0.11683

 Excited State   8:      Singlet-A      8.7531 eV  141.65 nm  f=0.0156  <S**2>=0.000
      22 -> 25         0.11000
      22 -> 26        -0.10744
      23 -> 26         0.31977
      23 -> 27         0.50937
      24 -> 27         0.32426

 Excited State   9:      Singlet-A      8.7954 eV  140.97 nm  f=0.0407  <S**2>=0.000
      20 -> 25        -0.10574
      22 -> 25         0.19178
      22 -> 26        -0.11379
      23 -> 26        -0.20250
      23 -> 27        -0.29120
      24 -> 27         0.53771

 Excited State  10:      Singlet-A      9.0059 eV  137.67 nm  f=0.0077  <S**2>=0.000
      22 -> 26         0.59271
      22 -> 27         0.33770

 Excited State  11:      Singlet-A      9.2892 eV  133.47 nm  f=0.0172  <S**2>=0.000
      19 -> 25         0.68461

 Excited State  12:      Singlet-A      9.5322 eV  130.07 nm  f=0.0035  <S**2>=0.000
      18 -> 25         0.63856
      20 -> 25        -0.19704
      23 -> 28         0.18889

 Excited State  13:      Singlet-A      9.5603 eV  129.69 nm  f=0.0106  <S**2>=0.000
      18 -> 25        -0.18239
      23 -> 28         0.65914

 Excited State  14:      Singlet-A      9.6851 eV  128.01 nm  f=0.0133  <S**2>=0.000
      17 -> 25         0.13832
      22 -> 27         0.16105
      24 -> 28         0.65901

 Excited State  15:      Singlet-A      9.8181 eV  126.28 nm  f=0.0119  <S**2>=0.000
      17 -> 25        -0.13032
      21 -> 26         0.20164
      22 -> 26        -0.30213
      22 -> 27         0.55214
      24 -> 28        -0.12062

 Excited State  16:      Singlet-A     10.1101 eV  122.63 nm  f=0.0190  <S**2>=0.000
      21 -> 26         0.59549
      21 -> 27        -0.26894
      22 -> 27        -0.17736

 The electronic state is 1-A.
 Alpha  occ. eigenvalues --  -19.19636 -19.15446 -19.14262 -10.32643 -10.26279
 Alpha  occ. eigenvalues --  -10.18607  -1.09453  -1.01703  -1.00603  -0.77348
 Alpha  occ. eigenvalues --   -0.68147  -0.58879  -0.52454  -0.50184  -0.47468
 Alpha  occ. eigenvalues --   -0.43830  -0.41737  -0.40585  -0.38853  -0.37612
 Alpha  occ. eigenvalues --   -0.34695  -0.31439  -0.27931  -0.27477
 Alpha virt. eigenvalues --   -0.00781   0.06498   0.07987   0.11699   0.14056
 Alpha virt. eigenvalues --    0.15362   0.17104   0.20786   0.23152   0.23976
 Alpha virt. eigenvalues --    0.30898   0.35411   0.52511   0.53180   0.56630

 Mulliken charges:
               1
     1  C    0.058378
     2  H    0.158382
     3  O   -0.617385
     4  H    0.395270
     5  C   -0.450677
     6  H    0.173078
     7  H    0.136687
     8  H    0.170841
     9  C    0.592224
    10  O   -0.472121
    11  O   -0.557826
    12  H    0.413150
 Sum of Mulliken charges =  -0.00000

 Dipole moment (field-independent basis, Debye):
    X=              1.3355    Y=             -0.7675    Z=              1.1407  Tot=              1.9168
 Quadrupole moment (field-independent basis, Debye-Ang):
   XX=            -26.0542   YY=            -40.2904   ZZ=            -34.4121
   XY=              0.9214   XZ=              1.7554   YZ=             -0.6249

 Normal termination of Gaussian 16 at Fri Feb 21 14:05:21 2025.
