 Gaussian 16, Revision C.02,
 Gaussian 16:  ES64L-G16RevC.02  7-Dec-2021

 ------------------------------
 # td=(nstat=16) b3lyp/6-31g(d)
 ------------------------------

 ------------------
 lactic_acid | No.5
 ------------------
 Symbolic Z-matrix:
 Charge =  0 Multiplicity = 1

                         Standard orientation:
 ---------------------------------------------------------------------
 Center     Atomic      Atomic             Coordinates (Angstroms)
 Number     Number       Type             X           Y           Z
 ---------------------------------------------------------------------
      1          6           0       -0.656194    0.171046   -0.437654
      2          1           0       -0.715416    0.643982   -1.425788
      3          8           0       -1.183523   -1.182846   -0.484667
      4          1           0       -2.152822   -1.151981   -0.615150
      5          6           0       -1.381846    1.028616    0.607785
      6          1           0       -0.950760    2.034161    0.662056
      7          1           0       -2.439884    1.132755    0.338248
      8          1           0       -1.309590    0.554867    1.590334
      9          6           0        0.821857    0.060094   -0.122038
     10          8           0        1.713298    0.633393   -0.753285
     11          8           0        1.073349   -0.703272    0.988874
     12          1           0        2.040585   -0.750520    1.154372
 ---------------------------------------------------------------------

 SCF Done:  E(RB3LYP) =  -343.593670377     A.U. after   14 cycles

 Excitation energies and oscillator strengths:

 Excited State   1:      Singlet-A      5.3689 eV  230.93 nm  f=0.0019  <S**2>=0.000
      23 -> 25        -0.21103
      24 -> 25         0.67043
 This state for optimization and/or second-order correction.
 Total Energy, E(TD-HF/TD-DFT) =  -343.396367209
 Copying the excited state density for this state as the 1-particle RhoCI density.

 Excited State   2:      Singlet-A      6.2764 eV  197.54 nm  f=0.0039  <S**2>=0.000
      23 -> 25         0.67274
      24 -> 25         0.21183

 Excited State   3:      Singlet-A      7.7167 eV  160.67 nm  f=0.0215  <S**2>=0.000
      22 -> 25         0.45946
      23 -> 27        -0.11304
      24 -> 26         0.48967
      24 -> 27         0.13861

 Excited State   4:      Singlet-A      7.8565 eV  157.81 nm  f=0.0075  <S**2>=0.000
      22 -> 25        -0.14309
      23 -> 26         0.59446
      23 -> 27        -0.22507
      24 -> 26         0.17401
      24 -> 27        -0.18228

 Excited State   5:      Singlet-A      8.0028 eV  154.93 nm  f=0.0007  <S**2>=0.000
      20 -> 25         0.11849
      21 -> 25         0.68587

 Excited State   6:      Singlet-A      8.4516 eV  146.70 nm  f=0.0865  <S**2>=0.000
      20 -> 25        -0.10851
      22 -> 25        -0.39880
      23 -> 26        -0.24348
      23 -> 27         0.11112
      24 -> 26         0.45715
      24 -> 27        -0.16306

 Excited State   7:      Singlet-A      8.6538 eV  143.27 nm  f=0.0227  <S**2>=0.000
      18 -> 25        -0.15815
      20 -> 25         0.57944
      23 -> 26        -0.10254
      24 -> 27        -0.31966

 Excited State   8:      Singlet-A      8.7043 eV  142.44 nm  f=0.0278  <S**2>=0.000
      18 -> 25        -0.10651
      20 -> 25         0.28826
      22 -> 25        -0.20059
      22 -> 26         0.13793
      23 -> 26         0.15243
      23 -> 27         0.15592
      24 -> 27         0.52060

 Excited State   9:      Singlet-A      8.8089 eV  140.75 nm  f=0.0361  <S**2>=0.000
      22 -> 25         0.15529
      23 -> 26         0.21344
      23 -> 27         0.61990
      24 -> 27        -0.17012

 Excited State  10:      Singlet-A      8.9114 eV  139.13 nm  f=0.0040  <S**2>=0.000
      22 -> 26         0.60155
      22 -> 27         0.32920

 Excited State  11:      Singlet-A      9.3303 eV  132.88 nm  f=0.0046  <S**2>=0.000
      19 -> 25         0.69711

 Excited State  12:      Singlet-A      9.6731 eV  128.17 nm  f=0.0038  <S**2>=0.000
      21 -> 26         0.20617
      22 -> 26        -0.31536
      22 -> 27         0.58261

 Excited State  13:      Singlet-A      9.8471 eV  125.91 nm  f=0.0038  <S**2>=0.000
      17 -> 25         0.16368
      18 -> 25        -0.22640
      21 -> 26         0.53585
      21 -> 27        -0.16247
      22 -> 27        -0.18878
      24 -> 28         0.19950

 Excited State  14:      Singlet-A      9.8684 eV  125.64 nm  f=0.1020  <S**2>=0.000
      17 -> 25        -0.17016
      18 -> 25         0.48897
      20 -> 25         0.14901
      21 -> 26         0.33657
      24 -> 28        -0.22367

 Excited State  15:      Singlet-A     10.0462 eV  123.41 nm  f=0.0224  <S**2>=0.000
      17 -> 25        -0.17239
      18 -> 25         0.22179
      23 -> 28         0.38889
      23 -> 30         0.13032
      24 -> 28         0.46264
      24 -> 30         0.10888

 Excited State  16:      Singlet-A     10.1650 eV  121.97 nm  f=0.0016  <S**2>=0.000
      17 -> 25         0.19186
      23 -> 28         0.48479
      23 -> 30         0.18870
      24 -> 28        -0.39582
      24 -> 29         0.10424

 The electronic state is 1-A.
 Alpha  occ. eigenvalues --  -19.19686 -19.15514 -19.14264 -10.32544 -10.26047
 Alpha  occ. eigenvalues --  -10.19593  -1.09387  -1.01730  -1.00628  -0.77817
 Alpha  occ. eigenvalues --   -0.67956  -0.60238  -0.51693  -0.48656  -0.47502
 Alpha  occ. eigenvalues --   -0.45498  -0.42608  -0.40726  -0.39183  -0.37969
 Alpha  occ. eigenvalues --   -0.34613  -0.31463  -0.28152  -0.27301
 Alpha virt. eigenvalues --   -0.00762   0.05743   0.07859   0.13067   0.14407
 Alpha virt. eigenvalues --    0.14836   0.17438   0.19014   0.20589   0.24332
 Alpha virt. eigenvalues --    0.31102   0.35471   0.50629   0.53105   0.55379

 Mulliken charges:
               1
     1  C    0.090205
     2  H    0.156784
     3  O   -0.624198
     4  H    0.394464
     5  C   -0.480497
     6  H    0.165658
     7  H    0.148692
     8  H    0.182317
     9  C    0.583009
    10  O   -0.468271
    11  O   -0.562255
    12  H    0.414092
 Sum of Mulliken charges =  -0.00000

 Dipole moment (field-independent basis, Debye):
    X=             -1.9966    Y=              0.4875    Z=              1.0878  Tot=              2.3254
 Quadrupole moment (field-independent basis, Debye-Ang):
   XX=            -28.9202   YY=            -37.2405   ZZ=            -35.4647
   XY=             -3.3493   XZ=              5.7321   YZ=              0.8346

 Normal termination of Gaussian 16 at Fri Feb 21 14:05:13 2025.
