 Gaussian 16, Revision C.02,
 Gaussian 16:  ES64L-G16RevC.02  7-Dec-2021

 ------------------------------
 # td=(nstat=16) b3lyp/6-31g(d)
 ------------------------------

 -------------------
 lactic_acid | No.12
 -------------------
 Symbolic Z-matrix:
 Charge =  0 Multiplicity = 1

                         Standard orientation:
 ---------------------------------------------------------------------
 Center     Atomic      Atomic             Coordinates (Angstroms)
 Number     Number       Type             X           Y           Z
 ---------------------------------------------------------------------
      1          6           0        0.677357   -0.048757    0.384432
      2          1           0        0.764225    0.033218    1.481445
      3          8           0        1.063222   -1.375847   -0.047859
      4          1           0        1.997190   -1.536001    0.194871
      5          6           0        1.531607    1.040850   -0.273389
      6          1           0        1.169027    2.033495    0.004517
      7          1           0        2.575969    0.946629    0.045181
      8          1           0        1.487702    0.941692   -1.362144
      9          6           0       -0.793068    0.164417    0.074488
     10          8           0       -1.327289    1.279711    0.094574
     11          8           0       -1.492774   -0.979318   -0.186711
     12          1           0       -2.434762   -0.754464   -0.357085
 ---------------------------------------------------------------------

 SCF Done:  E(RB3LYP) =  -343.594138428     A.U. after   14 cycles

 Excitation energies and oscillator strengths:

 Excited State   1:      Singlet-A      5.4959 eV  225.60 nm  f=0.0005  <S**2>=0.000
      24 -> 25         0.70152
 This state for optimization and/or second-order correction.
 Total Energy, E(TD-HF/TD-DFT) =  -343.392169167
 Copying the excited state density for this state as the 1-particle RhoCI density.

 Excited State   2:      Singlet-A      6.4484 eV  192.27 nm  f=0.0153  <S**2>=0.000
      23 -> 25         0.69995

 Excited State   3:      Singlet-A      7.7534 eV  159.91 nm  f=0.0166  <S**2>=0.000
      22 -> 25        -0.46800
      24 -> 26         0.47915
      24 -> 27         0.18709

 Excited State   4:      Singlet-A      7.8054 eV  158.84 nm  f=0.0014  <S**2>=0.000
      23 -> 26         0.64884
      23 -> 27        -0.25819

 Excited State   5:      Singlet-A      8.1904 eV  151.38 nm  f=0.0052  <S**2>=0.000
      21 -> 25         0.68800

 Excited State   6:      Singlet-A      8.4632 eV  146.50 nm  f=0.0751  <S**2>=0.000
      22 -> 25         0.37375
      24 -> 26         0.49341
      24 -> 27        -0.29198

 Excited State   7:      Singlet-A      8.6521 eV  143.30 nm  f=0.0003  <S**2>=0.000
      18 -> 25        -0.18771
      20 -> 25         0.61708
      23 -> 27        -0.18319
      24 -> 27         0.12851

 Excited State   8:      Singlet-A      8.6993 eV  142.52 nm  f=0.0070  <S**2>=0.000
      20 -> 25         0.16508
      22 -> 26        -0.23477
      23 -> 26         0.22122
      23 -> 27         0.53772
      24 -> 27         0.23245

 Excited State   9:      Singlet-A      8.8021 eV  140.86 nm  f=0.0719  <S**2>=0.000
      20 -> 25        -0.16024
      22 -> 25         0.28723
      23 -> 27        -0.22323
      24 -> 27         0.53103

 Excited State  10:      Singlet-A      8.9977 eV  137.80 nm  f=0.0079  <S**2>=0.000
      22 -> 26         0.55918
      22 -> 27         0.31071
      23 -> 27         0.22566

 Excited State  11:      Singlet-A      9.4138 eV  131.70 nm  f=0.0343  <S**2>=0.000
      19 -> 25         0.68575
      24 -> 28         0.10557

 Excited State  12:      Singlet-A      9.6276 eV  128.78 nm  f=0.0076  <S**2>=0.000
      21 -> 26        -0.12392
      22 -> 27        -0.19705
      23 -> 28         0.63164
      23 -> 30         0.10262

 Excited State  13:      Singlet-A      9.6671 eV  128.25 nm  f=0.0022  <S**2>=0.000
      18 -> 25         0.10625
      21 -> 26         0.18409
      22 -> 26        -0.28320
      22 -> 27         0.53501
      23 -> 28         0.24203

 Excited State  14:      Singlet-A      9.6883 eV  127.97 nm  f=0.0045  <S**2>=0.000
      18 -> 25         0.62717
      20 -> 25         0.19017
      22 -> 27        -0.11334
      24 -> 28        -0.17964

 Excited State  15:      Singlet-A      9.7715 eV  126.88 nm  f=0.0203  <S**2>=0.000
      17 -> 25         0.16635
      18 -> 25         0.14937
      21 -> 26        -0.21399
      24 -> 28         0.61349

 Excited State  16:      Singlet-A      9.9292 eV  124.87 nm  f=0.0172  <S**2>=0.000
      21 -> 26         0.59026
      21 -> 27        -0.17788
      22 -> 26         0.10311
      22 -> 27        -0.18738
      24 -> 28         0.19007

 The electronic state is 1-A.
 Alpha  occ. eigenvalues --  -19.19722 -19.15398 -19.14027 -10.32634 -10.26331
 Alpha  occ. eigenvalues --  -10.18892  -1.09482  -1.01796  -1.00499  -0.77391
 Alpha  occ. eigenvalues --   -0.68112  -0.59284  -0.52118  -0.50072  -0.47310
 Alpha  occ. eigenvalues --   -0.44738  -0.41753  -0.40604  -0.38716  -0.37561
 Alpha  occ. eigenvalues --   -0.34669  -0.31439  -0.27810  -0.27410
 Alpha virt. eigenvalues --   -0.00326   0.05929   0.07991   0.12041   0.13820
 Alpha virt. eigenvalues --    0.15329   0.17134   0.19717   0.23311   0.24375
 Alpha virt. eigenvalues --    0.30951   0.36638   0.51954   0.53136   0.56494

 Mulliken charges:
               1
     1  C    0.060946
     2  H    0.161813
     3  O   -0.617471
     4  H    0.394539
     5  C   -0.460128
     6  H    0.180046
     7  H    0.140311
     8  H    0.168423
     9  C    0.588973
    10  O   -0.477145
    11  O   -0.553202
    12  H    0.412894
 Sum of Mulliken charges =  -0.00000

 Dipole moment (field-independent basis, Debye):
    X=              1.5320    Y=             -0.4987    Z=              0.5969  Tot=              1.7181
 Quadrupole moment (field-independent basis, Debye-Ang):
   XX=            -26.2224   YY=            -40.7396   ZZ=            -34.0195
   XY=              2.3095   XZ=              2.4251   YZ=             -1.0309

 Normal termination of Gaussian 16 at Fri Feb 21 14:05:07 2025.
