 Gaussian 16, Revision C.02,
 Gaussian 16:  ES64L-G16RevC.02  7-Dec-2021

 ------------------------------
 # td=(nstat=16) b3lyp/6-31g(d)
 ------------------------------

 -------------------
 lactic_acid | No.15
 -------------------
 Symbolic Z-matrix:
 Charge =  0 Multiplicity = 1

                         Standard orientation:
 ---------------------------------------------------------------------
 Center     Atomic      Atomic             Coordinates (Angstroms)
 Number     Number       Type             X           Y           Z
 ---------------------------------------------------------------------
      1          6           0        0.660198   -0.165978    0.373558
      2          1           0        0.687642   -0.372885    1.456010
      3          8           0        0.951522   -1.384388   -0.369774
      4          1           0        1.807858   -1.750615   -0.071079
      5          6           0        1.632948    0.956146    0.023009
      6          1           0        1.369960    1.881118    0.543446
      7          1           0        2.652367    0.673337    0.308852
      8          1           0        1.607928    1.149151   -1.052651
      9          6           0       -0.773341    0.212655    0.043161
     10          8           0       -1.154022    1.352289   -0.239884
     11          8           0       -1.634704   -0.847601    0.142055
     12          1           0       -2.546945   -0.559441   -0.082123
 ---------------------------------------------------------------------

 SCF Done:  E(RB3LYP) =  -343.593927875     A.U. after   14 cycles

 Excitation energies and oscillator strengths:

 Excited State   1:      Singlet-A      5.3622 eV  231.22 nm  f=0.0005  <S**2>=0.000
      24 -> 25         0.70024
 This state for optimization and/or second-order correction.
 Total Energy, E(TD-HF/TD-DFT) =  -343.396871208
 Copying the excited state density for this state as the 1-particle RhoCI density.

 Excited State   2:      Singlet-A      6.1745 eV  200.80 nm  f=0.0079  <S**2>=0.000
      23 -> 25         0.70499

 Excited State   3:      Singlet-A      7.7527 eV  159.92 nm  f=0.0408  <S**2>=0.000
      21 -> 25        -0.13130
      22 -> 25         0.55313
      24 -> 26        -0.37116
      24 -> 27         0.15136

 Excited State   4:      Singlet-A      7.9424 eV  156.10 nm  f=0.0002  <S**2>=0.000
      20 -> 25         0.11230
      21 -> 25         0.67599
      22 -> 25         0.10591

 Excited State   5:      Singlet-A      8.1046 eV  152.98 nm  f=0.0016  <S**2>=0.000
      23 -> 26         0.52875
      23 -> 27         0.45441

 Excited State   6:      Singlet-A      8.5116 eV  145.67 nm  f=0.0751  <S**2>=0.000
      22 -> 25         0.32269
      24 -> 26         0.58303
      24 -> 27         0.16010

 Excited State   7:      Singlet-A      8.5909 eV  144.32 nm  f=0.0049  <S**2>=0.000
      18 -> 25         0.20808
      20 -> 25         0.64795
      21 -> 25        -0.11893

 Excited State   8:      Singlet-A      8.7582 eV  141.56 nm  f=0.0082  <S**2>=0.000
      23 -> 26        -0.43313
      23 -> 27         0.50647
      24 -> 27         0.20182

 Excited State   9:      Singlet-A      8.7932 eV  141.00 nm  f=0.0381  <S**2>=0.000
      22 -> 25        -0.18172
      22 -> 26         0.13268
      23 -> 26         0.14093
      23 -> 27        -0.14571
      24 -> 27         0.61790

 Excited State  10:      Singlet-A      9.0351 eV  137.22 nm  f=0.0040  <S**2>=0.000
      22 -> 26         0.61202
      22 -> 27        -0.30812

 Excited State  11:      Singlet-A      9.2104 eV  134.61 nm  f=0.0136  <S**2>=0.000
      19 -> 25         0.68494
      20 -> 25         0.10090

 Excited State  12:      Singlet-A      9.4637 eV  131.01 nm  f=0.0034  <S**2>=0.000
      18 -> 25         0.66297
      20 -> 25        -0.20539

 Excited State  13:      Singlet-A      9.5786 eV  129.44 nm  f=0.0122  <S**2>=0.000
      23 -> 28         0.68354

 Excited State  14:      Singlet-A      9.7109 eV  127.68 nm  f=0.0117  <S**2>=0.000
      17 -> 25         0.14870
      22 -> 27        -0.13281
      24 -> 28         0.66626

 Excited State  15:      Singlet-A      9.8955 eV  125.29 nm  f=0.0177  <S**2>=0.000
      17 -> 25         0.16616
      21 -> 26        -0.15697
      22 -> 26         0.28031
      22 -> 27         0.57855

 Excited State  16:      Singlet-A     10.1686 eV  121.93 nm  f=0.0135  <S**2>=0.000
      16 -> 25        -0.12587
      21 -> 26         0.55627
      21 -> 27         0.34538
      22 -> 27         0.16406

 The electronic state is 1-A.
 Alpha  occ. eigenvalues --  -19.19620 -19.15481 -19.14387 -10.32641 -10.26213
 Alpha  occ. eigenvalues --  -10.18519  -1.09440  -1.01647  -1.00678  -0.77353
 Alpha  occ. eigenvalues --   -0.68165  -0.58727  -0.52619  -0.50160  -0.47499
 Alpha  occ. eigenvalues --   -0.43430  -0.41839  -0.40638  -0.38912  -0.37642
 Alpha  occ. eigenvalues --   -0.34654  -0.31506  -0.27978  -0.27542
 Alpha virt. eigenvalues --   -0.01046   0.06733   0.07957   0.11733   0.14231
 Alpha virt. eigenvalues --    0.15320   0.17044   0.21425   0.22835   0.23642
 Alpha virt. eigenvalues --    0.30876   0.34758   0.52688   0.53270   0.56556

 Mulliken charges:
               1
     1  C    0.061535
     2  H    0.155420
     3  O   -0.619286
     4  H    0.395830
     5  C   -0.447144
     6  H    0.167500
     7  H    0.135853
     8  H    0.173555
     9  C    0.593563
    10  O   -0.468750
    11  O   -0.561497
    12  H    0.413420
 Sum of Mulliken charges =  -0.00000

 Dipole moment (field-independent basis, Debye):
    X=              1.2328    Y=             -0.8956    Z=              1.3752  Tot=              2.0526
 Quadrupole moment (field-independent basis, Debye-Ang):
   XX=            -26.0658   YY=            -39.7430   ZZ=            -34.8186
   XY=              0.3284   XZ=              1.4457   YZ=             -0.2928

 Normal termination of Gaussian 16 at Fri Feb 21 14:05:29 2025.
