 Gaussian 16, Revision C.02,
 Gaussian 16:  ES64L-G16RevC.02  7-Dec-2021

 ------------------------------
 # td=(nstat=16) b3lyp/6-31g(d)
 ------------------------------

 -------------------
 lactic_acid | No.17
 -------------------
 Symbolic Z-matrix:
 Charge =  0 Multiplicity = 1

                         Standard orientation:
 ---------------------------------------------------------------------
 Center     Atomic      Atomic             Coordinates (Angstroms)
 Number     Number       Type             X           Y           Z
 ---------------------------------------------------------------------
      1          6           0        0.648466   -0.224871    0.366587
      2          1           0        0.629824   -0.610383    1.395769
      3          8           0        0.935803   -1.314129   -0.566505
      4          1           0        1.735821   -1.794031   -0.272759
      5          6           0        1.648950    0.915171    0.226977
      6          1           0        1.406721    1.737662    0.907719
      7          1           0        2.659030    0.560996    0.461362
      8          1           0        1.634018    1.301030   -0.794984
      9          6           0       -0.765352    0.214006    0.023889
     10          8           0       -1.084060    1.291954   -0.481370
     11          8           0       -1.685589   -0.747098    0.361403
     12          1           0       -2.587025   -0.466921    0.089951
 ---------------------------------------------------------------------

 SCF Done:  E(RB3LYP) =  -343.593497013     A.U. after   14 cycles

 Excitation energies and oscillator strengths:

 Excited State   1:      Singlet-A      5.2982 eV  234.01 nm  f=0.0005  <S**2>=0.000
      24 -> 25         0.69956
 This state for optimization and/or second-order correction.
 Total Energy, E(TD-HF/TD-DFT) =  -343.398792305
 Copying the excited state density for this state as the 1-particle RhoCI density.

 Excited State   2:      Singlet-A      6.0590 eV  204.63 nm  f=0.0041  <S**2>=0.000
      23 -> 25         0.70375

 Excited State   3:      Singlet-A      7.7577 eV  159.82 nm  f=0.0403  <S**2>=0.000
      21 -> 25         0.13854
      22 -> 25         0.58026
      24 -> 26        -0.31990
      24 -> 27         0.15951

 Excited State   4:      Singlet-A      7.7832 eV  159.30 nm  f=0.0083  <S**2>=0.000
      21 -> 25         0.67632
      24 -> 26         0.10465

 Excited State   5:      Singlet-A      8.1812 eV  151.55 nm  f=0.0031  <S**2>=0.000
      23 -> 26         0.39566
      23 -> 27         0.56597

 Excited State   6:      Singlet-A      8.5327 eV  145.30 nm  f=0.0519  <S**2>=0.000
      20 -> 25        -0.20560
      22 -> 25         0.26061
      24 -> 26         0.56963
      24 -> 27         0.19014

 Excited State   7:      Singlet-A      8.5680 eV  144.71 nm  f=0.0237  <S**2>=0.000
      18 -> 25        -0.19384
      20 -> 25         0.61742
      21 -> 25        -0.12610
      24 -> 26         0.19604

 Excited State   8:      Singlet-A      8.7432 eV  141.81 nm  f=0.0114  <S**2>=0.000
      22 -> 26        -0.14431
      23 -> 26         0.54401
      23 -> 27        -0.36946
      24 -> 27         0.16739

 Excited State   9:      Singlet-A      8.7765 eV  141.27 nm  f=0.0323  <S**2>=0.000
      22 -> 25        -0.19618
      23 -> 26        -0.11882
      23 -> 27         0.13317
      24 -> 27         0.62736

 Excited State  10:      Singlet-A      9.0743 eV  136.63 nm  f=0.0097  <S**2>=0.000
      19 -> 25         0.68952
      20 -> 25         0.11286

 Excited State  11:      Singlet-A      9.1141 eV  136.03 nm  f=0.0008  <S**2>=0.000
      22 -> 26         0.62887
      22 -> 27        -0.24860
      23 -> 26         0.14927

 Excited State  12:      Singlet-A      9.3960 eV  131.95 nm  f=0.0079  <S**2>=0.000
      18 -> 25         0.66219
      20 -> 25         0.20460

 Excited State  13:      Singlet-A      9.7223 eV  127.53 nm  f=0.0124  <S**2>=0.000
      23 -> 28         0.65573
      24 -> 28        -0.18161

 Excited State  14:      Singlet-A      9.8825 eV  125.46 nm  f=0.0103  <S**2>=0.000
      17 -> 25         0.10355
      22 -> 26        -0.10217
      22 -> 27        -0.27838
      23 -> 28         0.17808
      24 -> 28         0.59840

 Excited State  15:      Singlet-A      9.9588 eV  124.50 nm  f=0.0177  <S**2>=0.000
      17 -> 25         0.19656
      22 -> 26         0.22114
      22 -> 27         0.57094
      24 -> 28         0.24377

 Excited State  16:      Singlet-A     10.1242 eV  122.46 nm  f=0.0034  <S**2>=0.000
      16 -> 25         0.67626
      21 -> 26         0.11218
      21 -> 27         0.11164

 The electronic state is 1-A.
 Alpha  occ. eigenvalues --  -19.19703 -19.15572 -19.14543 -10.32646 -10.26068
 Alpha  occ. eigenvalues --  -10.18450  -1.09437  -1.01580  -1.00797  -0.77408
 Alpha  occ. eigenvalues --   -0.68190  -0.58625  -0.52830  -0.49970  -0.47502
 Alpha  occ. eigenvalues --   -0.43004  -0.42139  -0.40800  -0.38917  -0.37706
 Alpha  occ. eigenvalues --   -0.34584  -0.31704  -0.28055  -0.27636
 Alpha virt. eigenvalues --   -0.01404   0.06957   0.07745   0.12262   0.14474
 Alpha virt. eigenvalues --    0.15238   0.17009   0.22136   0.22512   0.22623
 Alpha virt. eigenvalues --    0.30892   0.33708   0.52688   0.53653   0.55856

 Mulliken charges:
               1
     1  C    0.072528
     2  H    0.149978
     3  O   -0.625556
     4  H    0.397028
     5  C   -0.447057
     6  H    0.157278
     7  H    0.136886
     8  H    0.181098
     9  C    0.596404
    10  O   -0.461470
    11  O   -0.570849
    12  H    0.413733
 Sum of Mulliken charges =  -0.00000

 Dipole moment (field-independent basis, Debye):
    X=              1.0499    Y=             -1.1015    Z=              1.7737  Tot=              2.3370
 Quadrupole moment (field-independent basis, Debye-Ang):
   XX=            -26.1321   YY=            -38.2483   ZZ=            -36.0038
   XY=             -0.4675   XZ=              0.8905   YZ=              0.5177

 Normal termination of Gaussian 16 at Fri Feb 21 14:05:24 2025.
