 Gaussian 16, Revision C.02,
 Gaussian 16:  ES64L-G16RevC.02  7-Dec-2021

 ------------------------------
 # td=(nstat=16) b3lyp/6-31g(d)
 ------------------------------

 -------------
 binol | No.18
 -------------
 Symbolic Z-matrix:
 Charge =  0 Multiplicity = 1

                         Standard orientation:
 ---------------------------------------------------------------------
 Center     Atomic      Atomic             Coordinates (Angstroms)
 Number     Number       Type             X           Y           Z
 ---------------------------------------------------------------------
      1          6           0       -2.649351    1.832311   -1.832450
      2          6           0       -1.598374    1.347527   -1.086838
      3          6           0       -1.752742    0.204025   -0.253969
      4          6           0       -3.038152   -0.433045   -0.219303
      5          6           0       -4.101920    0.094321   -0.998924
      6          6           0       -3.917530    1.204415   -1.790135
      7          1           0       -2.504443    2.706494   -2.462064
      8          1           0       -0.629733    1.834312   -1.130242
      9          6           0       -0.674998   -0.320404    0.528174
     10          6           0       -3.210761   -1.581867    0.594026
     11          1           0       -5.069750   -0.400874   -0.958647
     12          1           0       -4.738167    1.598872   -2.383109
     13          6           0       -2.168535   -2.081030    1.335202
     14          6           0       -0.899705   -1.449336    1.303110
     15          1           0       -4.183017   -2.067746    0.623520
     16          1           0       -2.307851   -2.963364    1.958182
     17          6           0        3.917087   -1.205656   -1.789705
     18          6           0        4.101654   -0.094960   -0.999374
     19          6           0        3.038059    0.432997   -0.219916
     20          6           0        1.752604   -0.204034   -0.253924
     21          6           0        1.598094   -1.348265   -1.085761
     22          6           0        2.648929   -1.833643   -1.831195
     23          1           0        4.183189    2.068130    0.621689
     24          1           0        4.737590   -1.600551   -2.382575
     25          1           0        5.069504    0.400239   -0.959666
     26          6           0        3.210899    1.582289    0.592700
     27          6           0        0.675006    0.321066    0.527954
     28          1           0        0.629473   -1.835150   -1.128492
     29          1           0        2.503916   -2.708379   -2.460017
     30          6           0        0.900034    1.450233    1.302454
     31          6           0        2.168900    2.081855    1.333933
     32          1           0        2.308430    2.964466    1.956468
     33          8           0        0.140582   -1.940217    2.044996
     34          1           0       -0.162897   -2.725027    2.526414
     35          8           0       -0.139969    1.941398    2.044572
     36          1           0        0.163674    2.726355    2.525650
 ---------------------------------------------------------------------

 SCF Done:  E(RB3LYP) =  -921.015619467     A.U. after   14 cycles

 Excitation energies and oscillator strengths:

 Excited State   1:      Singlet-A      3.8064 eV  325.72 nm  f=0.0829  <S**2>=0.000
      74 -> 77         0.18068
      75 -> 76         0.67517
 This state for optimization and/or second-order correction.
 Total Energy, E(TD-HF/TD-DFT) =  -920.875736557
 Copying the excited state density for this state as the 1-particle RhoCI density.

 Excited State   2:      Singlet-A      3.8875 eV  318.93 nm  f=0.0000  <S**2>=0.000
      74 -> 76         0.49446
      75 -> 77         0.50165

 Excited State   3:      Singlet-A      4.1253 eV  300.54 nm  f=0.0118  <S**2>=0.000
      72 -> 77        -0.11083
      72 -> 79         0.10850
      73 -> 76        -0.10871
      73 -> 78        -0.12373
      74 -> 76        -0.45782
      74 -> 78         0.10027
      75 -> 77         0.46028
      75 -> 79         0.10819

 Excited State   4:      Singlet-A      4.1480 eV  298.90 nm  f=0.0872  <S**2>=0.000
      74 -> 77         0.64222
      75 -> 76        -0.13848
      75 -> 78         0.16558

 Excited State   5:      Singlet-A      4.4931 eV  275.94 nm  f=0.0344  <S**2>=0.000
      72 -> 76         0.45276
      73 -> 77         0.24408
      74 -> 77        -0.18905
      74 -> 79         0.17950
      75 -> 76         0.11460
      75 -> 78         0.38497

 Excited State   6:      Singlet-A      4.5174 eV  274.46 nm  f=0.0000  <S**2>=0.000
      72 -> 77         0.24466
      73 -> 76         0.44818
      74 -> 76        -0.16863
      74 -> 78        -0.26732
      75 -> 77         0.13755
      75 -> 79        -0.33903

 Excited State   7:      Singlet-A      4.7885 eV  258.92 nm  f=0.0023  <S**2>=0.000
      72 -> 77         0.53992
      73 -> 76        -0.43566
      75 -> 79        -0.10671

 Excited State   8:      Singlet-A      4.7935 eV  258.65 nm  f=0.0052  <S**2>=0.000
      72 -> 76        -0.43529
      73 -> 77         0.53614
      75 -> 78         0.13493

 Excited State   9:      Singlet-A      4.8950 eV  253.29 nm  f=0.0003  <S**2>=0.000
      74 -> 78         0.51150
      75 -> 79        -0.48161

 Excited State  10:      Singlet-A      4.9150 eV  252.26 nm  f=0.0180  <S**2>=0.000
      73 -> 77         0.16125
      74 -> 79         0.52434
      75 -> 78        -0.43544

 Excited State  11:      Singlet-A      5.4579 eV  227.17 nm  f=0.0798  <S**2>=0.000
      70 -> 77         0.15457
      71 -> 76        -0.41344
      73 -> 77         0.11131
      74 -> 79        -0.12190
      74 -> 81         0.12265
      75 -> 80         0.49125

 Excited State  12:      Singlet-A      5.5533 eV  223.26 nm  f=0.0823  <S**2>=0.000
      70 -> 76        -0.29196
      71 -> 77         0.36777
      72 -> 77        -0.16489
      73 -> 76        -0.12431
      74 -> 78        -0.15996
      74 -> 80         0.28221
      75 -> 79        -0.12385
      75 -> 81         0.32533

 Excited State  13:      Singlet-A      5.6617 eV  218.99 nm  f=0.0928  <S**2>=0.000
      70 -> 77         0.10606
      71 -> 76         0.50657
      72 -> 78         0.12699
      74 -> 81        -0.12504
      75 -> 80         0.39765

 Excited State  14:      Singlet-A      5.7477 eV  215.71 nm  f=0.2410  <S**2>=0.000
      72 -> 76        -0.14417
      72 -> 78         0.43591
      73 -> 77        -0.16190
      73 -> 79         0.40531
      74 -> 79         0.19194
      75 -> 78         0.15865
      75 -> 80         0.12298

 Excited State  15:      Singlet-A      5.7490 eV  215.66 nm  f=0.0344  <S**2>=0.000
      71 -> 77        -0.10898
      72 -> 79         0.23335
      73 -> 78         0.42488
      74 -> 80        -0.40236
      75 -> 81         0.24394

 Excited State  16:      Singlet-A      5.7648 eV  215.07 nm  f=0.0048  <S**2>=0.000
      70 -> 76         0.13589
      71 -> 77         0.16813
      72 -> 79         0.28113
      73 -> 78         0.40971
      74 -> 80         0.31225
      75 -> 81        -0.31072

 The electronic state is 1-A.
 Alpha  occ. eigenvalues --  -19.17468 -19.17468 -10.24579 -10.24579 -10.19210
 Alpha  occ. eigenvalues --  -10.19209 -10.19133 -10.19132 -10.19067 -10.19067
 Alpha  occ. eigenvalues --  -10.18781 -10.18781 -10.18691 -10.18663 -10.18263
 Alpha  occ. eigenvalues --  -10.18263 -10.18126 -10.18126 -10.17999 -10.17999
 Alpha  occ. eigenvalues --  -10.17679 -10.17678  -1.05638  -1.05470  -0.86980
 Alpha  occ. eigenvalues --   -0.85901  -0.81372  -0.80816  -0.78613  -0.75068
 Alpha  occ. eigenvalues --   -0.72930  -0.72896  -0.71989  -0.70226  -0.62940
 Alpha  occ. eigenvalues --   -0.62199  -0.61340  -0.61035  -0.59765  -0.56752
 Alpha  occ. eigenvalues --   -0.54511  -0.54400  -0.51486  -0.49895  -0.49274
 Alpha  occ. eigenvalues --   -0.48717  -0.46385  -0.46253  -0.44117  -0.42946
 Alpha  occ. eigenvalues --   -0.42486  -0.42120  -0.41533  -0.41516  -0.41095
 Alpha  occ. eigenvalues --   -0.39702  -0.39567  -0.39319  -0.38634  -0.36574
 Alpha  occ. eigenvalues --   -0.36021  -0.35757  -0.35196  -0.34128  -0.33961
 Alpha  occ. eigenvalues --   -0.33232  -0.31271  -0.30131  -0.30003  -0.27272
 Alpha  occ. eigenvalues --   -0.26359  -0.22628  -0.22600  -0.20076  -0.19386
 Alpha virt. eigenvalues --   -0.03299  -0.02717   0.00369   0.00850   0.03640
 Alpha virt. eigenvalues --    0.04397   0.07024   0.07073   0.10186   0.10470
 Alpha virt. eigenvalues --    0.11260   0.11271   0.11870   0.11999   0.14423

 Mulliken charges:
               1
     1  C   -0.134479
     2  C   -0.189406
     3  C    0.117656
     4  C    0.131496
     5  C   -0.195457
     6  C   -0.137280
     7  H    0.125543
     8  H    0.138125
     9  C   -0.053505
    10  C   -0.195239
    11  H    0.124424
    12  H    0.124523
    13  C   -0.195581
    14  C    0.324026
    15  H    0.130973
    16  H    0.118731
    17  C   -0.137277
    18  C   -0.195462
    19  C    0.131503
    20  C    0.117660
    21  C   -0.189381
    22  C   -0.134492
    23  H    0.130972
    24  H    0.124521
    25  H    0.124423
    26  C   -0.195240
    27  C   -0.053507
    28  H    0.138125
    29  H    0.125541
    30  C    0.324016
    31  C   -0.195579
    32  H    0.118732
    33  O   -0.640798
    34  H    0.406249
    35  O   -0.640804
    36  H    0.406249
 Sum of Mulliken charges =  -0.00000

 Dipole moment (field-independent basis, Debye):
    X=              0.0003    Y=             -0.0000    Z=              1.3769  Tot=              1.3769
 Quadrupole moment (field-independent basis, Debye-Ang):
   XX=           -115.4047   YY=           -107.2018   ZZ=           -118.4949
   XY=              7.8176   XZ=             -0.0010   YZ=             -0.0034

 1\1\GINC-CCC083\SP\RB3LYP TD-FC\6-31G(d)\C20H14O2\ROOT\20-Feb-2025\0\\
 # td=(nstat=16) b3lyp/6-31g(d)\\binol | No.18\\0,1\C,0,-2.649351,-1.83
 2311,1.83245\C,0,-1.598374,-1.347527,1.086838\C,0,-1.752742,-0.204025,
 0.253969\C,0,-3.038152,0.433045,0.219303\C,0,-4.10192,-0.094321,0.9989
 24\C,0,-3.91753,-1.204415,1.790135\H,0,-2.504443,-2.706494,2.462064\H,
 0,-0.629733,-1.834312,1.130242\C,0,-0.674998,0.320404,-0.528174\C,0,-3
 .210761,1.581867,-0.594026\H,0,-5.06975,0.400874,0.958647\H,0,-4.73816
 7,-1.598872,2.383109\C,0,-2.168535,2.08103,-1.335202\C,0,-0.899705,1.4

 Normal termination of Gaussian 16 at Thu Feb 20 09:33:23 2025.
