 Gaussian 16, Revision C.02,
 Gaussian 16:  ES64L-G16RevC.02  7-Dec-2021

 ------------------------------
 # td=(nstat=16) b3lyp/6-31g(d)
 ------------------------------

 ------------
 binol | No.4
 ------------
 Symbolic Z-matrix:
 Charge =  0 Multiplicity = 1

                         Standard orientation:
 ---------------------------------------------------------------------
 Center     Atomic      Atomic             Coordinates (Angstroms)
 Number     Number       Type             X           Y           Z
 ---------------------------------------------------------------------
      1          6           0       -2.376661    2.466327   -1.572161
      2          6           0       -1.696316    1.465479   -0.915822
      3          6           0       -0.504539    1.735701   -0.186153
      4          6           0       -0.020890    3.087242   -0.183044
      5          6           0       -0.752002    4.098909   -0.861395
      6          6           0       -1.910145    3.802001   -1.540570
      7          1           0       -3.281514    2.227063   -2.125059
      8          1           0       -2.062227    0.446354   -0.962217
      9          6           0        0.224841    0.712417    0.508401
     10          6           0        1.196766    3.381194    0.481099
     11          1           0       -0.369716    5.117147   -0.838708
     12          1           0       -2.460224    4.582670   -2.058836
     13          6           0        1.910145    2.389601    1.105530
     14          6           0        1.429294    1.056604    1.111744
     15          1           0        1.564743    4.404260    0.483717
     16          1           0        2.848351    2.617613    1.609358
     17          6           0        1.910145   -3.802001   -1.540570
     18          6           0        0.752002   -4.098909   -0.861395
     19          6           0        0.020890   -3.087242   -0.183044
     20          6           0        0.504539   -1.735701   -0.186153
     21          6           0        1.696316   -1.465479   -0.915822
     22          6           0        2.376661   -2.466327   -1.572161
     23          1           0       -1.564743   -4.404260    0.483717
     24          1           0        2.460224   -4.582670   -2.058836
     25          1           0        0.369716   -5.117147   -0.838708
     26          6           0       -1.196766   -3.381194    0.481099
     27          6           0       -0.224841   -0.712417    0.508401
     28          1           0        2.062227   -0.446354   -0.962217
     29          1           0        3.281514   -2.227063   -2.125059
     30          6           0       -1.429294   -1.056604    1.111744
     31          6           0       -1.910145   -2.389601    1.105530
     32          1           0       -2.848351   -2.617613    1.609358
     33          8           0        2.132861    0.076449    1.759335
     34          1           0        2.939352    0.464919    2.131305
     35          8           0       -2.132861   -0.076449    1.759335
     36          1           0       -2.939352   -0.464919    2.131305
 ---------------------------------------------------------------------

 SCF Done:  E(RB3LYP) =  -921.013633482     A.U. after   14 cycles

 Excitation energies and oscillator strengths:

 Excited State   1:      Singlet-B      3.6686 eV  337.96 nm  f=0.1509  <S**2>=0.000
      75 -> 76         0.69258
 This state for optimization and/or second-order correction.
 Total Energy, E(TD-HF/TD-DFT) =  -920.878816255
 Copying the excited state density for this state as the 1-particle RhoCI density.

 Excited State   2:      Singlet-A      3.8736 eV  320.08 nm  f=0.0005  <S**2>=0.000
      74 -> 76         0.55188
      75 -> 77         0.43515

 Excited State   3:      Singlet-A      4.1056 eV  301.99 nm  f=0.0079  <S**2>=0.000
      72 -> 76        -0.13693
      72 -> 78        -0.11537
      73 -> 79        -0.10295
      74 -> 76        -0.38726
      75 -> 77         0.52151
      75 -> 79         0.13577

 Excited State   4:      Singlet-B      4.2589 eV  291.12 nm  f=0.0242  <S**2>=0.000
      72 -> 77         0.12459
      73 -> 76        -0.25976
      74 -> 77         0.53504
      74 -> 79         0.11932
      75 -> 78         0.31164

 Excited State   5:      Singlet-B      4.4471 eV  278.79 nm  f=0.0523  <S**2>=0.000
      73 -> 76         0.48214
      74 -> 77         0.41243
      75 -> 78        -0.26363

 Excited State   6:      Singlet-A      4.4617 eV  277.89 nm  f=0.0001  <S**2>=0.000
      72 -> 76         0.50614
      73 -> 77        -0.14761
      74 -> 76        -0.16885
      74 -> 78        -0.19802
      75 -> 77         0.14567
      75 -> 79        -0.35817

 Excited State   7:      Singlet-A      4.7932 eV  258.67 nm  f=0.0096  <S**2>=0.000
      72 -> 76         0.38635
      73 -> 77         0.49785
      75 -> 79         0.30863

 Excited State   8:      Singlet-B      4.8244 eV  257.00 nm  f=0.0379  <S**2>=0.000
      72 -> 77         0.44283
      73 -> 76         0.35534
      74 -> 77        -0.11439
      74 -> 79        -0.12462
      75 -> 78         0.37743

 Excited State   9:      Singlet-A      4.9091 eV  252.56 nm  f=0.0026  <S**2>=0.000
      73 -> 77         0.24617
      74 -> 78         0.52892
      75 -> 79        -0.39164

 Excited State  10:      Singlet-B      4.9540 eV  250.27 nm  f=0.0155  <S**2>=0.000
      72 -> 77         0.37609
      74 -> 79         0.50699
      75 -> 78        -0.30065

 Excited State  11:      Singlet-B      5.2825 eV  234.71 nm  f=0.0133  <S**2>=0.000
      71 -> 76         0.53430
      75 -> 80         0.43249

 Excited State  12:      Singlet-B      5.4957 eV  225.60 nm  f=0.1378  <S**2>=0.000
      71 -> 76        -0.42886
      74 -> 79        -0.11848
      75 -> 80         0.51235

 Excited State  13:      Singlet-A      5.5711 eV  222.55 nm  f=0.0821  <S**2>=0.000
      70 -> 76         0.28214
      71 -> 77         0.36179
      72 -> 76         0.11472
      73 -> 77        -0.20783
      74 -> 78         0.19785
      74 -> 80        -0.27520
      75 -> 79         0.12452
      75 -> 81        -0.29806

 Excited State  14:      Singlet-B      5.7446 eV  215.83 nm  f=0.1291  <S**2>=0.000
      72 -> 77         0.13247
      72 -> 79        -0.40928
      73 -> 78         0.51292
      74 -> 79        -0.14755
      75 -> 78        -0.11370

 Excited State  15:      Singlet-A      5.7448 eV  215.82 nm  f=0.0106  <S**2>=0.000
      71 -> 77        -0.16406
      72 -> 78         0.54271
      73 -> 79        -0.23243
      74 -> 78         0.10378
      74 -> 80        -0.23490
      75 -> 81         0.19765

 Excited State  16:      Singlet-A      5.7772 eV  214.61 nm  f=0.0367  <S**2>=0.000
      71 -> 77        -0.14483
      72 -> 78         0.12479
      73 -> 77        -0.10641
      73 -> 79        -0.28300
      74 -> 80         0.49636
      75 -> 81        -0.28932

 The electronic state is 1-A.
 Alpha  occ. eigenvalues --  -19.17512 -19.17512 -10.24625 -10.24624 -10.19265
 Alpha  occ. eigenvalues --  -10.19265 -10.19148 -10.19148 -10.19082 -10.19082
 Alpha  occ. eigenvalues --  -10.18897 -10.18869 -10.18791 -10.18791 -10.18230
 Alpha  occ. eigenvalues --  -10.18230 -10.18088 -10.18088 -10.17977 -10.17977
 Alpha  occ. eigenvalues --  -10.17634 -10.17634  -1.05698  -1.05571  -0.86942
 Alpha  occ. eigenvalues --   -0.85901  -0.81369  -0.80840  -0.78633  -0.75061
 Alpha  occ. eigenvalues --   -0.72935  -0.72929  -0.71894  -0.70334  -0.62962
 Alpha  occ. eigenvalues --   -0.62452  -0.61145  -0.61027  -0.59733  -0.56713
 Alpha  occ. eigenvalues --   -0.54597  -0.54438  -0.51548  -0.50071  -0.49068
 Alpha  occ. eigenvalues --   -0.48764  -0.46376  -0.46280  -0.44190  -0.43068
 Alpha  occ. eigenvalues --   -0.42293  -0.42292  -0.41558  -0.41476  -0.41346
 Alpha  occ. eigenvalues --   -0.39750  -0.39306  -0.39297  -0.38711  -0.36615
 Alpha  occ. eigenvalues --   -0.36087  -0.35717  -0.35151  -0.34152  -0.33884
 Alpha  occ. eigenvalues --   -0.33183  -0.31302  -0.30263  -0.29925  -0.27814
 Alpha  occ. eigenvalues --   -0.25896  -0.22685  -0.22578  -0.20375  -0.19105
 Alpha virt. eigenvalues --   -0.03732  -0.02348   0.00390   0.00763   0.03310
 Alpha virt. eigenvalues --    0.04835   0.07031   0.07035   0.10123   0.10486
 Alpha virt. eigenvalues --    0.11005   0.11396   0.11963   0.12014   0.14388

 Mulliken charges:
               1
     1  C   -0.137836
     2  C   -0.181637
     3  C    0.118961
     4  C    0.132466
     5  C   -0.194995
     6  C   -0.137223
     7  H    0.124295
     8  H    0.136121
     9  C   -0.037021
    10  C   -0.196497
    11  H    0.124208
    12  H    0.124375
    13  C   -0.196039
    14  C    0.303642
    15  H    0.131347
    16  H    0.118787
    17  C   -0.137223
    18  C   -0.194995
    19  C    0.132466
    20  C    0.118961
    21  C   -0.181637
    22  C   -0.137836
    23  H    0.131347
    24  H    0.124375
    25  H    0.124208
    26  C   -0.196497
    27  C   -0.037021
    28  H    0.136121
    29  H    0.124295
    30  C    0.303642
    31  C   -0.196039
    32  H    0.118787
    33  O   -0.639376
    34  H    0.406423
    35  O   -0.639376
    36  H    0.406423
 Sum of Mulliken charges =  -0.00000

 Dipole moment (field-independent basis, Debye):
    X=              0.0000    Y=             -0.0000    Z=              0.9666  Tot=              0.9666
 Quadrupole moment (field-independent basis, Debye-Ang):
   XX=           -105.2949   YY=           -113.4819   ZZ=           -122.9620
   XY=              8.6085   XZ=              0.0000   YZ=             -0.0000

 1\1\GINC-CCC131\SP\RB3LYP TD-FC\6-31G(d)\C20H14O2\ROOT\20-Feb-2025\0\\
 # td=(nstat=16) b3lyp/6-31g(d)\\binol | No.4\\0,1\C,0,-2.867679,-1.872
 886,-1.572161\C,0,-1.757153,-1.391952,-0.915822\C,0,-1.79947,-0.170657
 ,-0.186153\C,0,-3.036563,0.557478,-0.183044\C,0,-4.167222,0.0287,-0.86
 1395\C,0,-4.092393,-1.164552,-1.54057\H,0,-2.802054,-2.806535,-2.12505
 9\H,0,-0.824555,-1.942195,-0.962217\C,0,-0.657725,0.354245,0.508401\C,
 0,-3.097346,1.808637,0.481099\H,0,-5.095883,0.594862,-0.838708\H,0,-4.
 962245,-1.558747,-2.058836\C,0,-1.989727,2.323754,1.10553\C,0,-0.77032

 Normal termination of Gaussian 16 at Thu Feb 20 09:29:53 2025.
