 Gaussian 16, Revision C.02,
 Gaussian 16:  ES64L-G16RevC.02  7-Dec-2021

 ------------------------------
 # td=(nstat=16) b3lyp/6-31g(d)
 ------------------------------

 ------------
 binol | No.6
 ------------
 Symbolic Z-matrix:
 Charge =  0 Multiplicity = 1

                         Standard orientation:
 ---------------------------------------------------------------------
 Center     Atomic      Atomic             Coordinates (Angstroms)
 Number     Number       Type             X           Y           Z
 ---------------------------------------------------------------------
      1          6           0       -2.956360    1.886832    1.412763
      2          6           0       -1.825175    1.410242    0.788530
      3          6           0       -1.817391    0.161416    0.104298
      4          6           0       -3.026505   -0.612977    0.158452
      5          6           0       -4.184773   -0.083765    0.788469
      6          6           0       -4.161721    1.148063    1.397448
      7          1           0       -2.917920    2.841000    1.932295
      8          1           0       -0.912111    1.988027    0.842107
      9          6           0       -0.654208   -0.362904   -0.573867
     10          6           0       -3.032345   -1.928414   -0.369113
     11          1           0       -5.089439   -0.687849    0.794770
     12          1           0       -5.050470    1.541769    1.882888
     13          6           0       -1.892870   -2.463831   -0.909124
     14          6           0       -0.707043   -1.693229   -0.987953
     15          1           0       -3.946780   -2.514528   -0.322806
     16          1           0       -1.888395   -3.481673   -1.296393
     17          6           0        4.161708   -1.148082    1.397448
     18          6           0        4.184769    0.083750    0.788476
     19          6           0        3.026504    0.612972    0.158461
     20          6           0        1.817384   -0.161410    0.104304
     21          6           0        1.825161   -1.410241    0.788528
     22          6           0        2.956342   -1.886842    1.412758
     23          1           0        3.946796    2.514518   -0.322789
     24          1           0        5.050455   -1.541797    1.882887
     25          1           0        5.089439    0.687827    0.794779
     26          6           0        3.032357    1.928410   -0.369098
     27          6           0        0.654199    0.362914   -0.573857
     28          1           0        0.912093   -1.988021    0.842100
     29          1           0        2.917896   -2.841013    1.932284
     30          6           0        0.707053    1.693240   -0.987941
     31          6           0        1.892885    2.463834   -0.909109
     32          1           0        1.888418    3.481676   -1.296379
     33          8           0        0.396403   -2.224720   -1.603249
     34          1           0        0.199179   -3.136522   -1.866503
     35          8           0       -0.396382    2.224742   -1.603247
     36          1           0       -0.199146    3.136541   -1.866501
 ---------------------------------------------------------------------

 SCF Done:  E(RB3LYP) =  -921.005315210     A.U. after   14 cycles

 Excitation energies and oscillator strengths:

 Excited State   1:      Singlet-A      3.5539 eV  348.87 nm  f=0.1890  <S**2>=0.000
      75 -> 76         0.69608
 This state for optimization and/or second-order correction.
 Total Energy, E(TD-HF/TD-DFT) =  -920.874710983
 Copying the excited state density for this state as the 1-particle RhoCI density.

 Excited State   2:      Singlet-A      3.8210 eV  324.48 nm  f=0.0016  <S**2>=0.000
      74 -> 76         0.62581
      75 -> 77         0.31059

 Excited State   3:      Singlet-A      4.0830 eV  303.66 nm  f=0.0032  <S**2>=0.000
      72 -> 76        -0.17043
      72 -> 78        -0.10201
      74 -> 76        -0.25600
      75 -> 77         0.59407
      75 -> 79         0.14575

 Excited State   4:      Singlet-A      4.2343 eV  292.81 nm  f=0.0113  <S**2>=0.000
      72 -> 77        -0.10438
      73 -> 76         0.47456
      74 -> 77        -0.28340
      74 -> 79        -0.12918
      75 -> 78        -0.39168

 Excited State   5:      Singlet-A      4.3923 eV  282.28 nm  f=0.0004  <S**2>=0.000
      72 -> 76         0.53428
      74 -> 76        -0.16288
      74 -> 78        -0.17089
      75 -> 77         0.18048
      75 -> 79        -0.33544

 Excited State   6:      Singlet-A      4.4561 eV  278.24 nm  f=0.0542  <S**2>=0.000
      73 -> 76         0.35087
      74 -> 77         0.59543

 Excited State   7:      Singlet-A      4.7671 eV  260.09 nm  f=0.0171  <S**2>=0.000
      72 -> 76         0.35123
      73 -> 77         0.42675
      75 -> 79         0.42611

 Excited State   8:      Singlet-A      4.8195 eV  257.25 nm  f=0.0766  <S**2>=0.000
      72 -> 77         0.31608
      73 -> 76         0.29513
      74 -> 77        -0.17354
      74 -> 79        -0.21138
      75 -> 78         0.47333

 Excited State   9:      Singlet-A      4.9211 eV  251.95 nm  f=0.0017  <S**2>=0.000
      73 -> 77         0.33683
      74 -> 78         0.52786
      75 -> 79        -0.30418

 Excited State  10:      Singlet-A      4.9908 eV  248.43 nm  f=0.0031  <S**2>=0.000
      71 -> 76        -0.15182
      72 -> 77         0.44755
      74 -> 79         0.47451
      75 -> 78        -0.17289

 Excited State  11:      Singlet-A      5.1125 eV  242.51 nm  f=0.0015  <S**2>=0.000
      71 -> 76         0.61669
      72 -> 77         0.17339
      75 -> 80         0.28016

 Excited State  12:      Singlet-A      5.3880 eV  230.11 nm  f=0.1533  <S**2>=0.000
      71 -> 76        -0.26983
      74 -> 79        -0.14982
      75 -> 80         0.61461

 Excited State  13:      Singlet-A      5.5681 eV  222.67 nm  f=0.0982  <S**2>=0.000
      70 -> 76         0.24381
      71 -> 77         0.35024
      72 -> 76         0.11937
      73 -> 77        -0.27039
      73 -> 79        -0.10454
      74 -> 78         0.24361
      74 -> 80        -0.23067
      75 -> 79         0.14654
      75 -> 81        -0.26409

 Excited State  14:      Singlet-A      5.6958 eV  217.68 nm  f=0.0469  <S**2>=0.000
      71 -> 77        -0.31933
      72 -> 78         0.47371
      73 -> 77        -0.10340
      73 -> 79        -0.13236
      74 -> 78         0.20151
      74 -> 80        -0.13970
      75 -> 79         0.12639
      75 -> 81         0.21356

 Excited State  15:      Singlet-A      5.7140 eV  216.98 nm  f=0.0898  <S**2>=0.000
      72 -> 77         0.12369
      72 -> 79        -0.38457
      73 -> 78         0.54748
      74 -> 79        -0.12188

 Excited State  16:      Singlet-A      5.7516 eV  215.57 nm  f=0.0095  <S**2>=0.000
      70 -> 76         0.16579
      73 -> 77         0.10010
      73 -> 79         0.47041
      74 -> 80        -0.44039

 The electronic state is 1-A.
 Alpha  occ. eigenvalues --  -19.17483 -19.17482 -10.24690 -10.24690 -10.19419
 Alpha  occ. eigenvalues --  -10.19419 -10.19190 -10.19185 -10.19185 -10.19163
 Alpha  occ. eigenvalues --  -10.19118 -10.19118 -10.18838 -10.18838 -10.18218
 Alpha  occ. eigenvalues --  -10.18218 -10.18063 -10.18063 -10.17965 -10.17965
 Alpha  occ. eigenvalues --  -10.17599 -10.17599  -1.05722  -1.05616  -0.86904
 Alpha  occ. eigenvalues --   -0.85915  -0.81379  -0.80877  -0.78673  -0.75051
 Alpha  occ. eigenvalues --   -0.72962  -0.72934  -0.71863  -0.70439  -0.63021
 Alpha  occ. eigenvalues --   -0.62607  -0.61036  -0.61010  -0.59685  -0.56698
 Alpha  occ. eigenvalues --   -0.54686  -0.54467  -0.51649  -0.50163  -0.48928
 Alpha  occ. eigenvalues --   -0.48843  -0.46360  -0.46310  -0.44344  -0.43243
 Alpha  occ. eigenvalues --   -0.42532  -0.42154  -0.41589  -0.41472  -0.41452
 Alpha  occ. eigenvalues --   -0.39726  -0.39231  -0.39071  -0.38726  -0.36672
 Alpha  occ. eigenvalues --   -0.36102  -0.35768  -0.35099  -0.34082  -0.33811
 Alpha  occ. eigenvalues --   -0.33112  -0.31363  -0.30382  -0.29870  -0.28284
 Alpha  occ. eigenvalues --   -0.25535  -0.22756  -0.22532  -0.20541  -0.18984
 Alpha virt. eigenvalues --   -0.04175  -0.02109   0.00317   0.00634   0.03150
 Alpha virt. eigenvalues --    0.05009   0.06990   0.07032   0.10010   0.10315
 Alpha virt. eigenvalues --    0.10820   0.11464   0.11938   0.12073   0.14383

 Mulliken charges:
               1
     1  C   -0.140523
     2  C   -0.170316
     3  C    0.111824
     4  C    0.131648
     5  C   -0.192610
     6  C   -0.137500
     7  H    0.123242
     8  H    0.134607
     9  C   -0.020293
    10  C   -0.194847
    11  H    0.124077
    12  H    0.124486
    13  C   -0.200246
    14  C    0.283421
    15  H    0.132057
    16  H    0.119037
    17  C   -0.137500
    18  C   -0.192610
    19  C    0.131649
    20  C    0.111821
    21  C   -0.170317
    22  C   -0.140523
    23  H    0.132058
    24  H    0.124486
    25  H    0.124077
    26  C   -0.194848
    27  C   -0.020294
    28  H    0.134607
    29  H    0.123242
    30  C    0.283421
    31  C   -0.200247
    32  H    0.119037
    33  O   -0.634395
    34  H    0.406334
    35  O   -0.634396
    36  H    0.406334
 Sum of Mulliken charges =  -0.00000

 Dipole moment (field-independent basis, Debye):
    X=             -0.0000    Y=             -0.0000    Z=             -0.4422  Tot=              0.4422
 Quadrupole moment (field-independent basis, Debye-Ang):
   XX=           -116.7240   YY=            -99.5034   ZZ=           -125.9993
   XY=              5.9780   XZ=             -0.0001   YZ=              0.0001

 1\1\GINC-CCC135\SP\RB3LYP TD-FC\6-31G(d)\C20H14O2\ROOT\20-Feb-2025\0\\
 # td=(nstat=16) b3lyp/6-31g(d)\\binol | No.6\\0,1\C,0,-2.95636,-1.8868
 32,-1.412763\C,0,-1.825175,-1.410242,-0.78853\C,0,-1.817391,-0.161416,
 -0.104298\C,0,-3.026505,0.612977,-0.158452\C,0,-4.184773,0.083765,-0.7
 88469\C,0,-4.161721,-1.148063,-1.397448\H,0,-2.91792,-2.841,-1.932295\
 H,0,-0.912111,-1.988027,-0.842107\C,0,-0.654208,0.362904,0.573867\C,0,
 -3.032345,1.928414,0.369113\H,0,-5.089439,0.687849,-0.79477\H,0,-5.050
 47,-1.541769,-1.882888\C,0,-1.89287,2.463831,0.909124\C,0,-0.707043,1.

 Normal termination of Gaussian 16 at Thu Feb 20 09:32:12 2025.
