 Gaussian 16, Revision C.02,
 Gaussian 16:  ES64L-G16RevC.02  7-Dec-2021

 ------------------------------
 # td=(nstat=16) b3lyp/6-31g(d)
 ------------------------------

 -------------
 binol | No.14
 -------------
 Symbolic Z-matrix:
 Charge =  0 Multiplicity = 1

                         Standard orientation:
 ---------------------------------------------------------------------
 Center     Atomic      Atomic             Coordinates (Angstroms)
 Number     Number       Type             X           Y           Z
 ---------------------------------------------------------------------
      1          6           0        2.956474    1.886717    1.412829
      2          6           0        1.825303    1.410276    0.788439
      3          6           0        1.817436    0.161464    0.104159
      4          6           0        3.026537   -0.612973    0.158331
      5          6           0        4.184778   -0.083910    0.788497
      6          6           0        4.161775    1.147864    1.397598
      7          1           0        2.918073    2.840885    1.932359
      8          1           0        0.912402    1.988285    0.841905
      9          6           0        0.654182   -0.362841   -0.573934
     10          6           0        3.032317   -1.928349   -0.369357
     11          1           0        5.089381   -0.688088    0.794849
     12          1           0        5.050492    1.541423    1.883211
     13          6           0        1.892790   -2.463751   -0.909324
     14          6           0        0.706913   -1.693209   -0.988007
     15          1           0        3.946719   -2.514529   -0.323177
     16          1           0        1.888340   -3.481541   -1.296730
     17          6           0       -4.161680   -1.148179    1.397393
     18          6           0       -4.184786    0.083659    0.788404
     19          6           0       -3.026504    0.612950    0.158479
     20          6           0       -1.817351   -0.161383    0.104414
     21          6           0       -1.825057   -1.410184    0.788694
     22          6           0       -2.956251   -1.886838    1.412863
     23          1           0       -3.946805    2.514506   -0.322781
     24          1           0       -5.050439   -1.541953    1.882755
     25          1           0       -5.089487    0.687686    0.794655
     26          6           0       -3.032372    1.928388   -0.369080
     27          6           0       -0.654211    0.362982   -0.573772
     28          1           0       -0.911968   -1.987918    0.842395
     29          1           0       -2.917776   -2.840999    1.932402
     30          6           0       -0.707082    1.693300   -0.987891
     31          6           0       -1.892883    2.463861   -0.909020
     32          1           0       -1.888376    3.481738   -1.296205
     33          8           0       -0.396557   -2.224709   -1.603181
     34          1           0       -0.199346   -3.136513   -1.866441
     35          8           0        0.396314    2.224893   -1.603144
     36          1           0        0.198761    3.136485   -1.866896
 ---------------------------------------------------------------------

 SCF Done:  E(RB3LYP) =  -921.005315171     A.U. after   14 cycles

 Excitation energies and oscillator strengths:

 Excited State   1:      Singlet-A      3.5538 eV  348.88 nm  f=0.1891  <S**2>=0.000
      75 -> 76         0.69608
 This state for optimization and/or second-order correction.
 Total Energy, E(TD-HF/TD-DFT) =  -920.874716583
 Copying the excited state density for this state as the 1-particle RhoCI density.

 Excited State   2:      Singlet-A      3.8210 eV  324.48 nm  f=0.0016  <S**2>=0.000
      74 -> 76         0.62577
      75 -> 77        -0.31069

 Excited State   3:      Singlet-A      4.0830 eV  303.66 nm  f=0.0032  <S**2>=0.000
      72 -> 76         0.17041
      72 -> 78         0.10201
      74 -> 76         0.25610
      75 -> 77         0.59403
      75 -> 79         0.14575

 Excited State   4:      Singlet-A      4.2342 eV  292.81 nm  f=0.0113  <S**2>=0.000
      72 -> 77         0.10438
      73 -> 76         0.47459
      74 -> 77         0.28330
      74 -> 79         0.12917
      75 -> 78        -0.39172

 Excited State   5:      Singlet-A      4.3922 eV  282.28 nm  f=0.0004  <S**2>=0.000
      72 -> 76         0.53427
      74 -> 76        -0.16289
      74 -> 78        -0.17088
      75 -> 77        -0.18044
      75 -> 79         0.33547

 Excited State   6:      Singlet-A      4.4561 eV  278.24 nm  f=0.0542  <S**2>=0.000
      73 -> 76        -0.35080
      74 -> 77         0.59547

 Excited State   7:      Singlet-A      4.7670 eV  260.09 nm  f=0.0171  <S**2>=0.000
      72 -> 76        -0.35124
      73 -> 77         0.42672
      75 -> 79         0.42612

 Excited State   8:      Singlet-A      4.8195 eV  257.26 nm  f=0.0767  <S**2>=0.000
      72 -> 77        -0.31604
      73 -> 76         0.29517
      74 -> 77         0.17356
      74 -> 79         0.21137
      75 -> 78         0.47332

 Excited State   9:      Singlet-A      4.9210 eV  251.95 nm  f=0.0017  <S**2>=0.000
      73 -> 77        -0.33686
      74 -> 78         0.52786
      75 -> 79         0.30415

 Excited State  10:      Singlet-A      4.9908 eV  248.43 nm  f=0.0031  <S**2>=0.000
      71 -> 76        -0.15190
      72 -> 77         0.44755
      74 -> 79         0.47448
      75 -> 78         0.17289

 Excited State  11:      Singlet-A      5.1124 eV  242.52 nm  f=0.0015  <S**2>=0.000
      71 -> 76         0.61665
      72 -> 77         0.17345
      75 -> 80        -0.28022

 Excited State  12:      Singlet-A      5.3879 eV  230.12 nm  f=0.1533  <S**2>=0.000
      71 -> 76         0.26989
      74 -> 79         0.14985
      75 -> 80         0.61458

 Excited State  13:      Singlet-A      5.5681 eV  222.67 nm  f=0.0982  <S**2>=0.000
      70 -> 76         0.24388
      71 -> 77         0.35024
      72 -> 76         0.11934
      73 -> 77         0.27034
      73 -> 79         0.10447
      74 -> 78         0.24357
      74 -> 80        -0.23067
      75 -> 79        -0.14650
      75 -> 81         0.26420

 Excited State  14:      Singlet-A      5.6958 eV  217.68 nm  f=0.0470  <S**2>=0.000
      71 -> 77        -0.31923
      72 -> 78         0.47371
      73 -> 77         0.10346
      73 -> 79         0.13236
      74 -> 78         0.20155
      74 -> 80        -0.13976
      75 -> 79        -0.12642
      75 -> 81        -0.21358

 Excited State  15:      Singlet-A      5.7140 eV  216.98 nm  f=0.0899  <S**2>=0.000
      72 -> 77        -0.12371
      72 -> 79         0.38450
      73 -> 78         0.54752
      74 -> 79         0.12188

 Excited State  16:      Singlet-A      5.7516 eV  215.56 nm  f=0.0095  <S**2>=0.000
      70 -> 76        -0.16583
      73 -> 77         0.10016
      73 -> 79         0.47036
      74 -> 80         0.44040

 The electronic state is 1-A.
 Alpha  occ. eigenvalues --  -19.17483 -19.17483 -10.24690 -10.24689 -10.19419
 Alpha  occ. eigenvalues --  -10.19419 -10.19190 -10.19185 -10.19185 -10.19163
 Alpha  occ. eigenvalues --  -10.19118 -10.19118 -10.18838 -10.18838 -10.18218
 Alpha  occ. eigenvalues --  -10.18218 -10.18063 -10.18062 -10.17965 -10.17965
 Alpha  occ. eigenvalues --  -10.17599 -10.17598  -1.05724  -1.05617  -0.86904
 Alpha  occ. eigenvalues --   -0.85915  -0.81379  -0.80877  -0.78672  -0.75050
 Alpha  occ. eigenvalues --   -0.72962  -0.72934  -0.71862  -0.70438  -0.63021
 Alpha  occ. eigenvalues --   -0.62607  -0.61036  -0.61011  -0.59684  -0.56697
 Alpha  occ. eigenvalues --   -0.54686  -0.54468  -0.51649  -0.50163  -0.48928
 Alpha  occ. eigenvalues --   -0.48842  -0.46360  -0.46310  -0.44344  -0.43243
 Alpha  occ. eigenvalues --   -0.42531  -0.42154  -0.41589  -0.41472  -0.41452
 Alpha  occ. eigenvalues --   -0.39727  -0.39231  -0.39071  -0.38727  -0.36672
 Alpha  occ. eigenvalues --   -0.36101  -0.35769  -0.35099  -0.34082  -0.33811
 Alpha  occ. eigenvalues --   -0.33112  -0.31363  -0.30381  -0.29870  -0.28284
 Alpha  occ. eigenvalues --   -0.25535  -0.22756  -0.22532  -0.20541  -0.18984
 Alpha virt. eigenvalues --   -0.04175  -0.02109   0.00317   0.00634   0.03150
 Alpha virt. eigenvalues --    0.05009   0.06990   0.07031   0.10011   0.10315
 Alpha virt. eigenvalues --    0.10820   0.11464   0.11938   0.12073   0.14383

 Mulliken charges:
               1
     1  C   -0.140507
     2  C   -0.170324
     3  C    0.111824
     4  C    0.131655
     5  C   -0.192605
     6  C   -0.137503
     7  H    0.123242
     8  H    0.134610
     9  C   -0.020301
    10  C   -0.194860
    11  H    0.124076
    12  H    0.124488
    13  C   -0.200253
    14  C    0.283431
    15  H    0.132054
    16  H    0.119030
    17  C   -0.137500
    18  C   -0.192617
    19  C    0.131654
    20  C    0.111817
    21  C   -0.170317
    22  C   -0.140524
    23  H    0.132055
    24  H    0.124485
    25  H    0.124078
    26  C   -0.194854
    27  C   -0.020312
    28  H    0.134612
    29  H    0.123242
    30  C    0.283467
    31  C   -0.200261
    32  H    0.119032
    33  O   -0.634380
    34  H    0.406339
    35  O   -0.634409
    36  H    0.406336
 Sum of Mulliken charges =  -0.00000

 Dipole moment (field-independent basis, Debye):
    X=             -0.0005    Y=             -0.0004    Z=             -0.4431  Tot=              0.4431
 Quadrupole moment (field-independent basis, Debye-Ang):
   XX=           -116.7254   YY=            -99.5053   ZZ=           -125.9952
   XY=             -5.9788   XZ=              0.0020   YZ=             -0.0013

 1\1\GINC-CCC179\SP\RB3LYP TD-FC\6-31G(d)\C20H14O2\ROOT\20-Feb-2025\0\\
 # td=(nstat=16) b3lyp/6-31g(d)\\binol | No.14\\0,1\C,0,-2.956474,-1.88
 6717,1.412829\C,0,-1.825303,-1.410276,0.788439\C,0,-1.817436,-0.161464
 ,0.104159\C,0,-3.026537,0.612973,0.158331\C,0,-4.184778,0.08391,0.7884
 97\C,0,-4.161775,-1.147864,1.397598\H,0,-2.918073,-2.840885,1.932359\H
 ,0,-0.912402,-1.988285,0.841905\C,0,-0.654182,0.362841,-0.573934\C,0,-
 3.032317,1.928349,-0.369357\H,0,-5.089381,0.688088,0.794849\H,0,-5.050
 492,-1.541423,1.883211\C,0,-1.89279,2.463751,-0.909324\C,0,-0.706913,1

 Normal termination of Gaussian 16 at Thu Feb 20 09:33:31 2025.
