 Gaussian 16, Revision C.02,
 Gaussian 16:  ES64L-G16RevC.02  7-Dec-2021

 ------------------------------
 # td=(nstat=16) b3lyp/6-31g(d)
 ------------------------------

 ------------
 binol | No.3
 ------------
 Symbolic Z-matrix:
 Charge =  0 Multiplicity = 1

                         Standard orientation:
 ---------------------------------------------------------------------
 Center     Atomic      Atomic             Coordinates (Angstroms)
 Number     Number       Type             X           Y           Z
 ---------------------------------------------------------------------
      1          6           0       -1.790670    2.828907   -1.685010
      2          6           0       -1.333070    1.728514   -0.995738
      3          6           0       -0.139337    1.785983   -0.223215
      4          6           0        0.581170    3.026889   -0.197665
      5          6           0        0.078836    4.145001   -0.915517
      6          6           0       -1.084215    4.054853   -1.644107
      7          1           0       -2.704099    2.755454   -2.269745
      8          1           0       -1.880478    0.793441   -1.042576
      9          6           0        0.359193    0.655069    0.502015
     10          6           0        1.790670    3.102933    0.538577
     11          1           0        0.637990    5.077520   -0.880057
     12          1           0       -1.458719    4.915891   -2.190928
     13          6           0        2.270879    2.008677    1.213643
     14          6           0        1.556582    0.784517    1.193593
     15          1           0        2.338904    4.041627    0.559946
     16          1           0        3.201073    2.071979    1.776473
     17          6           0        1.084215   -4.054853   -1.644107
     18          6           0       -0.078836   -4.145001   -0.915517
     19          6           0       -0.581170   -3.026889   -0.197665
     20          6           0        0.139337   -1.785983   -0.223215
     21          6           0        1.333070   -1.728514   -0.995738
     22          6           0        1.790670   -2.828907   -1.685010
     23          1           0       -2.338904   -4.041627    0.559946
     24          1           0        1.458719   -4.915891   -2.190928
     25          1           0       -0.637990   -5.077520   -0.880057
     26          6           0       -1.790670   -3.102933    0.538577
     27          6           0       -0.359193   -0.655069    0.502015
     28          1           0        1.880478   -0.793441   -1.042576
     29          1           0        2.704099   -2.755454   -2.269745
     30          6           0       -1.556582   -0.784517    1.193593
     31          6           0       -2.270879   -2.008677    1.213643
     32          1           0       -3.201073   -2.071979    1.776473
     33          8           0        2.028589   -0.303220    1.877922
     34          1           0        2.865932   -0.064454    2.304065
     35          8           0       -2.028589    0.303220    1.877922
     36          1           0       -2.865932    0.064454    2.304065
 ---------------------------------------------------------------------

 SCF Done:  E(RB3LYP) =  -921.015117359     A.U. after   14 cycles

 Excitation energies and oscillator strengths:

 Excited State   1:      Singlet-B      3.7322 eV  332.20 nm  f=0.1236  <S**2>=0.000
      74 -> 77         0.12072
      75 -> 76         0.68828
 This state for optimization and/or second-order correction.
 Total Energy, E(TD-HF/TD-DFT) =  -920.877961346
 Copying the excited state density for this state as the 1-particle RhoCI density.

 Excited State   2:      Singlet-A      3.8842 eV  319.20 nm  f=0.0001  <S**2>=0.000
      74 -> 76         0.51254
      75 -> 77         0.48254

 Excited State   3:      Singlet-A      4.1183 eV  301.06 nm  f=0.0103  <S**2>=0.000
      72 -> 76        -0.12324
      72 -> 78        -0.12062
      73 -> 79        -0.10656
      74 -> 76        -0.43696
      75 -> 77         0.48047
      75 -> 79         0.12522

 Excited State   4:      Singlet-B      4.2205 eV  293.77 nm  f=0.0493  <S**2>=0.000
      72 -> 77         0.10848
      73 -> 76        -0.14256
      74 -> 77         0.61673
      74 -> 79         0.10226
      75 -> 78         0.23089

 Excited State   5:      Singlet-B      4.4652 eV  277.66 nm  f=0.0413  <S**2>=0.000
      72 -> 77        -0.14951
      73 -> 76         0.49278
      74 -> 77         0.28144
      74 -> 79        -0.13625
      75 -> 76        -0.10170
      75 -> 78        -0.34870

 Excited State   6:      Singlet-A      4.4913 eV  276.06 nm  f=0.0000  <S**2>=0.000
      72 -> 76         0.48426
      73 -> 77        -0.18729
      74 -> 76        -0.17022
      74 -> 78        -0.22325
      75 -> 77         0.13727
      75 -> 79        -0.35744

 Excited State   7:      Singlet-A      4.7939 eV  258.63 nm  f=0.0054  <S**2>=0.000
      72 -> 76         0.40594
      73 -> 77         0.53052
      75 -> 79         0.21659

 Excited State   8:      Singlet-B      4.8118 eV  257.67 nm  f=0.0170  <S**2>=0.000
      72 -> 77         0.50853
      73 -> 76         0.39127
      75 -> 78         0.27243

 Excited State   9:      Singlet-A      4.9014 eV  252.96 nm  f=0.0020  <S**2>=0.000
      73 -> 77         0.16151
      74 -> 78         0.52468
      75 -> 79        -0.44136

 Excited State  10:      Singlet-B      4.9337 eV  251.30 nm  f=0.0225  <S**2>=0.000
      72 -> 77         0.27843
      74 -> 79         0.52000
      75 -> 78        -0.37948

 Excited State  11:      Singlet-B      5.3665 eV  231.03 nm  f=0.0347  <S**2>=0.000
      71 -> 76         0.46889
      75 -> 80         0.48807

 Excited State  12:      Singlet-A      5.5629 eV  222.88 nm  f=0.0786  <S**2>=0.000
      70 -> 76         0.29074
      71 -> 77         0.36455
      72 -> 76         0.11655
      73 -> 77        -0.18386
      74 -> 78         0.17763
      74 -> 80        -0.27999
      75 -> 79         0.11977
      75 -> 81        -0.31539

 Excited State  13:      Singlet-B      5.5722 eV  222.50 nm  f=0.1171  <S**2>=0.000
      71 -> 76         0.48889
      74 -> 79         0.10036
      75 -> 80        -0.44549

 Excited State  14:      Singlet-B      5.7484 eV  215.69 nm  f=0.1700  <S**2>=0.000
      72 -> 77         0.14401
      72 -> 79        -0.41218
      73 -> 76        -0.11544
      73 -> 78         0.48840
      74 -> 79        -0.16623
      75 -> 78        -0.13002

 Excited State  15:      Singlet-A      5.7524 eV  215.53 nm  f=0.0027  <S**2>=0.000
      72 -> 78         0.52135
      73 -> 79        -0.25059
      74 -> 80        -0.33006
      75 -> 81         0.21118

 Excited State  16:      Singlet-A      5.7737 eV  214.74 nm  f=0.0245  <S**2>=0.000
      70 -> 76         0.15716
      71 -> 77        -0.20807
      72 -> 78         0.26662
      73 -> 79        -0.26142
      74 -> 80         0.40962
      75 -> 81        -0.30993

 The electronic state is 1-A.
 Alpha  occ. eigenvalues --  -19.17496 -19.17496 -10.24601 -10.24601 -10.19223
 Alpha  occ. eigenvalues --  -10.19223 -10.19139 -10.19139 -10.19073 -10.19073
 Alpha  occ. eigenvalues --  -10.18781 -10.18780 -10.18779 -10.18752 -10.18244
 Alpha  occ. eigenvalues --  -10.18244 -10.18106 -10.18106 -10.17986 -10.17986
 Alpha  occ. eigenvalues --  -10.17655 -10.17655  -1.05666  -1.05523  -0.86961
 Alpha  occ. eigenvalues --   -0.85900  -0.81369  -0.80826  -0.78620  -0.75066
 Alpha  occ. eigenvalues --   -0.72927  -0.72916  -0.71931  -0.70280  -0.62945
 Alpha  occ. eigenvalues --   -0.62340  -0.61225  -0.61032  -0.59750  -0.56732
 Alpha  occ. eigenvalues --   -0.54549  -0.54419  -0.51509  -0.49994  -0.49160
 Alpha  occ. eigenvalues --   -0.48737  -0.46381  -0.46265  -0.44143  -0.43003
 Alpha  occ. eigenvalues --   -0.42382  -0.42195  -0.41545  -0.41495  -0.41225
 Alpha  occ. eigenvalues --   -0.39734  -0.39438  -0.39314  -0.38672  -0.36592
 Alpha  occ. eigenvalues --   -0.36063  -0.35722  -0.35178  -0.34150  -0.33918
 Alpha  occ. eigenvalues --   -0.33211  -0.31284  -0.30199  -0.29959  -0.27546
 Alpha  occ. eigenvalues --   -0.26109  -0.22638  -0.22602  -0.20257  -0.19214
 Alpha virt. eigenvalues --   -0.03517  -0.02517   0.00389   0.00813   0.03439
 Alpha virt. eigenvalues --    0.04648   0.07034   0.07049   0.10155   0.10493
 Alpha virt. eigenvalues --    0.11135   0.11332   0.11931   0.11997   0.14399

 Mulliken charges:
               1
     1  C   -0.136108
     2  C   -0.186044
     3  C    0.118868
     4  C    0.131822
     5  C   -0.195377
     6  C   -0.137227
     7  H    0.124897
     8  H    0.136824
     9  C   -0.046037
    10  C   -0.195958
    11  H    0.124303
    12  H    0.124413
    13  C   -0.195497
    14  C    0.315234
    15  H    0.131119
    16  H    0.118761
    17  C   -0.137227
    18  C   -0.195377
    19  C    0.131822
    20  C    0.118868
    21  C   -0.186044
    22  C   -0.136108
    23  H    0.131119
    24  H    0.124413
    25  H    0.124303
    26  C   -0.195958
    27  C   -0.046037
    28  H    0.136824
    29  H    0.124897
    30  C    0.315234
    31  C   -0.195497
    32  H    0.118761
    33  O   -0.640365
    34  H    0.406369
    35  O   -0.640365
    36  H    0.406369
 Sum of Mulliken charges =  -0.00000

 Dipole moment (field-independent basis, Debye):
    X=             -0.0000    Y=              0.0000    Z=              1.1897  Tot=              1.1897
 Quadrupole moment (field-independent basis, Debye-Ang):
   XX=           -104.1406   YY=           -116.3244   ZZ=           -120.9938
   XY=              6.7289   XZ=             -0.0000   YZ=             -0.0000

 1\1\GINC-CCC055\SP\RB3LYP TD-FC\6-31G(d)\C20H14O2\ROOT\20-Feb-2025\0\\
 # td=(nstat=16) b3lyp/6-31g(d)\\binol | No.3\\0,1\C,0,1.79067,-2.82890
 7,-1.68501\C,0,1.33307,-1.728514,-0.995738\C,0,0.139337,-1.785983,-0.2
 23215\C,0,-0.58117,-3.026889,-0.197665\C,0,-0.078836,-4.145001,-0.9155
 17\C,0,1.084215,-4.054853,-1.644107\H,0,2.704099,-2.755454,-2.269745\H
 ,0,1.880478,-0.793441,-1.042576\C,0,-0.359193,-0.655069,0.502015\C,0,-
 1.79067,-3.102933,0.538577\H,0,-0.63799,-5.07752,-0.880057\H,0,1.45871
 9,-4.915891,-2.190928\C,0,-2.270879,-2.008677,1.213643\C,0,-1.556582,-

 Normal termination of Gaussian 16 at Thu Feb 20 09:30:43 2025.
