 Gaussian 16, Revision C.02,
 Gaussian 16:  ES64L-G16RevC.02  7-Dec-2021

 ------------------------------
 # td=(nstat=16) b3lyp/6-31g(d)
 ------------------------------

 -------------
 binol | No.16
 -------------
 Symbolic Z-matrix:
 Charge =  0 Multiplicity = 1

                         Standard orientation:
 ---------------------------------------------------------------------
 Center     Atomic      Atomic             Coordinates (Angstroms)
 Number     Number       Type             X           Y           Z
 ---------------------------------------------------------------------
      1          6           0        2.867522   -1.872896   -1.572332
      2          6           0        1.757053   -1.391971   -0.915840
      3          6           0        1.799434   -0.170754   -0.186130
      4          6           0        3.036572    0.557336   -0.183040
      5          6           0        4.167153    0.028574   -0.861498
      6          6           0        4.092224   -1.164607   -1.540817
      7          1           0        2.801754   -2.806490   -2.125308
      8          1           0        0.824477   -1.942247   -0.962189
      9          6           0        0.657740    0.354206    0.508583
     10          6           0        3.097459    1.808498    0.481108
     11          1           0        5.095840    0.594694   -0.838818
     12          1           0        4.962024   -1.558750   -2.059208
     13          6           0        1.989908    2.323668    1.105573
     14          6           0        0.770485    1.601779    1.111870
     15          1           0        4.033595    2.361418    0.483698
     16          1           0        2.038271    3.287988    1.609366
     17          6           0       -4.092246    1.164590   -1.540808
     18          6           0       -4.167161   -0.028608   -0.861518
     19          6           0       -3.036581   -0.557350   -0.183048
     20          6           0       -1.799454    0.170749   -0.186117
     21          6           0       -1.757082    1.391984   -0.915801
     22          6           0       -2.867556    1.872901   -1.572291
     23          1           0       -4.033573   -2.361442    0.483732
     24          1           0       -4.962047    1.558724   -2.059204
     25          1           0       -5.095839   -0.594742   -0.838865
     26          6           0       -3.097445   -1.808504    0.481127
     27          6           0       -0.657745   -0.354233    0.508580
     28          1           0       -0.824498    1.942256   -0.962109
     29          1           0       -2.801812    2.806512   -2.125241
     30          6           0       -0.770454   -1.601783    1.111907
     31          6           0       -1.989903   -2.323660    1.105634
     32          1           0       -2.038305   -3.287943    1.609495
     33          8           0       -0.324069    2.109575    1.759371
     34          1           0       -0.093261    2.974313    2.131742
     35          8           0        0.324104   -2.109485    1.759479
     36          1           0        0.093546   -2.974535    2.131275
 ---------------------------------------------------------------------

 SCF Done:  E(RB3LYP) =  -921.013633184     A.U. after   14 cycles

 Excitation energies and oscillator strengths:

 Excited State   1:      Singlet-A      3.6686 eV  337.96 nm  f=0.1509  <S**2>=0.000
      75 -> 76         0.69258
 This state for optimization and/or second-order correction.
 Total Energy, E(TD-HF/TD-DFT) =  -920.878813430
 Copying the excited state density for this state as the 1-particle RhoCI density.

 Excited State   2:      Singlet-A      3.8736 eV  320.08 nm  f=0.0005  <S**2>=0.000
      74 -> 76         0.55188
      75 -> 77        -0.43515

 Excited State   3:      Singlet-A      4.1056 eV  301.99 nm  f=0.0079  <S**2>=0.000
      72 -> 76         0.13697
      72 -> 78         0.11537
      73 -> 79        -0.10295
      74 -> 76         0.38725
      75 -> 77         0.52151
      75 -> 79        -0.13576

 Excited State   4:      Singlet-A      4.2589 eV  291.12 nm  f=0.0242  <S**2>=0.000
      72 -> 77         0.12458
      73 -> 76        -0.25967
      74 -> 77         0.53516
      74 -> 79        -0.11931
      75 -> 78        -0.31151

 Excited State   5:      Singlet-A      4.4472 eV  278.79 nm  f=0.0523  <S**2>=0.000
      73 -> 76         0.48218
      74 -> 77         0.41230
      75 -> 78         0.26372

 Excited State   6:      Singlet-A      4.4617 eV  277.89 nm  f=0.0001  <S**2>=0.000
      72 -> 76         0.50616
      73 -> 77        -0.14760
      74 -> 76        -0.16885
      74 -> 78        -0.19806
      75 -> 77        -0.14569
      75 -> 79        -0.35811

 Excited State   7:      Singlet-A      4.7932 eV  258.67 nm  f=0.0096  <S**2>=0.000
      72 -> 76         0.38631
      73 -> 77         0.49797
      75 -> 79         0.30849

 Excited State   8:      Singlet-A      4.8243 eV  257.00 nm  f=0.0378  <S**2>=0.000
      72 -> 77         0.44301
      73 -> 76         0.35534
      74 -> 77        -0.11435
      74 -> 79         0.12440
      75 -> 78        -0.37731

 Excited State   9:      Singlet-A      4.9092 eV  252.56 nm  f=0.0026  <S**2>=0.000
      73 -> 77         0.24596
      74 -> 78         0.52891
      75 -> 79        -0.39178

 Excited State  10:      Singlet-A      4.9540 eV  250.27 nm  f=0.0156  <S**2>=0.000
      72 -> 77        -0.37588
      74 -> 79         0.50704
      75 -> 78        -0.30084

 Excited State  11:      Singlet-A      5.2826 eV  234.70 nm  f=0.0133  <S**2>=0.000
      71 -> 76         0.53447
      75 -> 80        -0.43228

 Excited State  12:      Singlet-A      5.4957 eV  225.60 nm  f=0.1379  <S**2>=0.000
      71 -> 76         0.42864
      74 -> 79        -0.11855
      75 -> 80         0.51249

 Excited State  13:      Singlet-A      5.5711 eV  222.55 nm  f=0.0821  <S**2>=0.000
      70 -> 76         0.28217
      71 -> 77         0.36187
      72 -> 76         0.11470
      73 -> 77        -0.20781
      74 -> 78         0.19779
      74 -> 80        -0.27509
      75 -> 79         0.12451
      75 -> 81        -0.29808

 Excited State  14:      Singlet-A      5.7446 eV  215.83 nm  f=0.1287  <S**2>=0.000
      72 -> 77         0.13224
      72 -> 79         0.40886
      73 -> 78         0.51243
      74 -> 79         0.14729
      75 -> 78         0.11353

 Excited State  15:      Singlet-A      5.7448 eV  215.82 nm  f=0.0109  <S**2>=0.000
      71 -> 77        -0.16400
      72 -> 78         0.54225
      73 -> 79         0.23245
      74 -> 78         0.10374
      74 -> 80        -0.23426
      75 -> 81         0.19705

 Excited State  16:      Singlet-A      5.7772 eV  214.61 nm  f=0.0367  <S**2>=0.000
      71 -> 77        -0.14508
      72 -> 78         0.12420
      73 -> 77        -0.10643
      73 -> 79         0.28253
      74 -> 80         0.49654
      75 -> 81        -0.28950

 The electronic state is 1-A.
 Alpha  occ. eigenvalues --  -19.17512 -19.17511 -10.24625 -10.24624 -10.19265
 Alpha  occ. eigenvalues --  -10.19265 -10.19149 -10.19149 -10.19082 -10.19082
 Alpha  occ. eigenvalues --  -10.18897 -10.18869 -10.18791 -10.18791 -10.18230
 Alpha  occ. eigenvalues --  -10.18230 -10.18088 -10.18088 -10.17977 -10.17977
 Alpha  occ. eigenvalues --  -10.17634 -10.17634  -1.05696  -1.05569  -0.86942
 Alpha  occ. eigenvalues --   -0.85901  -0.81369  -0.80840  -0.78633  -0.75061
 Alpha  occ. eigenvalues --   -0.72935  -0.72929  -0.71895  -0.70335  -0.62962
 Alpha  occ. eigenvalues --   -0.62451  -0.61144  -0.61027  -0.59732  -0.56713
 Alpha  occ. eigenvalues --   -0.54596  -0.54438  -0.51548  -0.50070  -0.49068
 Alpha  occ. eigenvalues --   -0.48764  -0.46375  -0.46280  -0.44190  -0.43068
 Alpha  occ. eigenvalues --   -0.42294  -0.42292  -0.41558  -0.41476  -0.41346
 Alpha  occ. eigenvalues --   -0.39750  -0.39306  -0.39297  -0.38711  -0.36615
 Alpha  occ. eigenvalues --   -0.36086  -0.35717  -0.35151  -0.34152  -0.33884
 Alpha  occ. eigenvalues --   -0.33183  -0.31302  -0.30263  -0.29925  -0.27814
 Alpha  occ. eigenvalues --   -0.25896  -0.22685  -0.22578  -0.20375  -0.19106
 Alpha virt. eigenvalues --   -0.03732  -0.02349   0.00390   0.00763   0.03310
 Alpha virt. eigenvalues --    0.04835   0.07031   0.07035   0.10123   0.10486
 Alpha virt. eigenvalues --    0.11005   0.11396   0.11963   0.12014   0.14387

 Mulliken charges:
               1
     1  C   -0.137821
     2  C   -0.181689
     3  C    0.118997
     4  C    0.132456
     5  C   -0.195010
     6  C   -0.137215
     7  H    0.124295
     8  H    0.136115
     9  C   -0.036980
    10  C   -0.196504
    11  H    0.124208
    12  H    0.124375
    13  C   -0.196021
    14  C    0.303623
    15  H    0.131350
    16  H    0.118791
    17  C   -0.137213
    18  C   -0.195010
    19  C    0.132454
    20  C    0.118994
    21  C   -0.181676
    22  C   -0.137825
    23  H    0.131348
    24  H    0.124376
    25  H    0.124209
    26  C   -0.196503
    27  C   -0.036993
    28  H    0.136124
    29  H    0.124297
    30  C    0.303620
    31  C   -0.196013
    32  H    0.118791
    33  O   -0.639398
    34  H    0.406420
    35  O   -0.639392
    36  H    0.406420
 Sum of Mulliken charges =  -0.00000

 Dipole moment (field-independent basis, Debye):
    X=              0.0003    Y=             -0.0004    Z=              0.9666  Tot=              0.9666
 Quadrupole moment (field-independent basis, Debye-Ang):
   XX=           -116.3601   YY=           -102.4178   ZZ=           -122.9589
   XY=              6.5020   XZ=              0.0010   YZ=              0.0016

 1\1\GINC-CCC079\SP\RB3LYP TD-FC\6-31G(d)\C20H14O2\ROOT\20-Feb-2025\0\\
 # td=(nstat=16) b3lyp/6-31g(d)\\binol | No.16\\0,1\C,0,-2.867522,-1.87
 2896,1.572332\C,0,-1.757053,-1.391971,0.91584\C,0,-1.799434,-0.170754,
 0.18613\C,0,-3.036572,0.557336,0.18304\C,0,-4.167153,0.028574,0.861498
 \C,0,-4.092224,-1.164607,1.540817\H,0,-2.801754,-2.80649,2.125308\H,0,
 -0.824477,-1.942247,0.962189\C,0,-0.65774,0.354206,-0.508583\C,0,-3.09
 7459,1.808498,-0.481108\H,0,-5.09584,0.594694,0.838818\H,0,-4.962024,-
 1.55875,2.059208\C,0,-1.989908,2.323668,-1.105573\C,0,-0.770485,1.6017

 Normal termination of Gaussian 16 at Thu Feb 20 09:33:09 2025.
