 Gaussian 16, Revision C.02,
 Gaussian 16:  ES64L-G16RevC.02  7-Dec-2021

 ------------------------------
 # td=(nstat=16) b3lyp/6-31g(d)
 ------------------------------

 -------------
 binol | No.19
 -------------
 Symbolic Z-matrix:
 Charge =  0 Multiplicity = 1

                         Standard orientation:
 ---------------------------------------------------------------------
 Center     Atomic      Atomic             Coordinates (Angstroms)
 Number     Number       Type             X           Y           Z
 ---------------------------------------------------------------------
      1          6           0        2.476934   -1.996862    1.784995
      2          6           0        1.476093   -1.182050    1.305342
      3          6           0        1.714133   -0.280174    0.230275
      4          6           0        3.030673   -0.245727   -0.339973
      5          6           0        4.040202   -1.099258    0.179366
      6          6           0        3.774599   -1.958923    1.220065
      7          1           0        2.269362   -2.677550    2.606669
      8          1           0        0.484808   -1.219694    1.745001
      9          6           0        0.690152    0.574370   -0.287070
     10          6           0        3.287571    0.645077   -1.413094
     11          1           0        5.032565   -1.059376   -0.264672
     12          1           0        4.554545   -2.607702    1.609200
     13          6           0        2.297299    1.460796   -1.902010
     14          6           0        0.997237    1.426936   -1.337333
     15          1           0        4.283429    0.675114   -1.848546
     16          1           0        2.501897    2.142748   -2.726087
     17          6           0       -3.775121   -1.957755   -1.221110
     18          6           0       -4.040453   -1.098677   -0.179864
     19          6           0       -3.030726   -0.245602    0.339855
     20          6           0       -1.714274   -0.279857   -0.230610
     21          6           0       -1.476504   -1.181172   -1.306223
     22          6           0       -2.477525   -1.995557   -1.786220
     23          1           0       -4.283138    0.674452    1.849192
     24          1           0       -4.555214   -2.606189   -1.610530
     25          1           0       -5.032747   -1.058925    0.264340
     26          6           0       -3.287338    0.644531    1.413596
     27          6           0       -0.690117    0.574245    0.287121
     28          1           0       -0.485279   -1.218724   -1.746014
     29          1           0       -2.270161   -2.675821   -2.608296
     30          6           0       -0.996855    1.426024    1.338144
     31          6           0       -2.296855    1.459721    1.902993
     32          1           0       -2.501267    2.141127    2.727570
     33          8           0        0.006878    2.238533   -1.820403
     34          1           0        0.368139    2.774165   -2.543167
     35          8           0       -0.006194    2.236944    1.821755
     36          1           0       -0.367146    2.772057    2.545054
 ---------------------------------------------------------------------

 SCF Done:  E(RB3LYP) =  -921.015741623     A.U. after   14 cycles

 Excitation energies and oscillator strengths:

 Excited State   1:      Singlet-A      3.8710 eV  320.29 nm  f=0.0202  <S**2>=0.000
      74 -> 77        -0.35138
      75 -> 76         0.60772
 This state for optimization and/or second-order correction.
 Total Energy, E(TD-HF/TD-DFT) =  -920.873483159
 Copying the excited state density for this state as the 1-particle RhoCI density.

 Excited State   2:      Singlet-A      3.8837 eV  319.24 nm  f=0.0001  <S**2>=0.000
      74 -> 76         0.51145
      75 -> 77        -0.48429

 Excited State   3:      Singlet-A      4.0693 eV  304.68 nm  f=0.1493  <S**2>=0.000
      72 -> 78        -0.10090
      74 -> 77         0.58576
      75 -> 76         0.31645
      75 -> 78        -0.12916

 Excited State   4:      Singlet-A      4.1193 eV  300.98 nm  f=0.0123  <S**2>=0.000
      72 -> 77        -0.12102
      72 -> 79        -0.10871
      73 -> 78         0.12356
      74 -> 76         0.44117
      74 -> 78        -0.12443
      75 -> 77         0.47489

 Excited State   5:      Singlet-A      4.5147 eV  274.62 nm  f=0.0330  <S**2>=0.000
      72 -> 76         0.37888
      73 -> 77        -0.34792
      74 -> 77         0.13547
      74 -> 79         0.23482
      75 -> 76         0.13502
      75 -> 78         0.36950

 Excited State   6:      Singlet-A      4.5298 eV  273.70 nm  f=0.0000  <S**2>=0.000
      72 -> 77        -0.31450
      73 -> 76         0.39036
      74 -> 76        -0.16397
      74 -> 78        -0.32621
      75 -> 77        -0.14963
      75 -> 79        -0.29480

 Excited State   7:      Singlet-A      4.7804 eV  259.36 nm  f=0.0021  <S**2>=0.000
      72 -> 76         0.48861
      73 -> 77         0.50834

 Excited State   8:      Singlet-A      4.7814 eV  259.31 nm  f=0.0006  <S**2>=0.000
      72 -> 77         0.51642
      73 -> 76         0.47816

 Excited State   9:      Singlet-A      4.8918 eV  253.45 nm  f=0.0009  <S**2>=0.000
      74 -> 78        -0.49049
      75 -> 79         0.50543

 Excited State  10:      Singlet-A      4.8960 eV  253.23 nm  f=0.0060  <S**2>=0.000
      74 -> 79         0.52236
      75 -> 78        -0.46467

 Excited State  11:      Singlet-A      5.5230 eV  224.49 nm  f=0.1953  <S**2>=0.000
      70 -> 77        -0.24025
      71 -> 76         0.34083
      72 -> 76         0.15962
      73 -> 77        -0.15926
      74 -> 79        -0.18159
      74 -> 81         0.25796
      75 -> 78        -0.16677
      75 -> 80         0.37703

 Excited State  12:      Singlet-A      5.5494 eV  223.42 nm  f=0.0919  <S**2>=0.000
      70 -> 76        -0.29002
      71 -> 77         0.37161
      72 -> 77         0.14828
      73 -> 76        -0.13654
      74 -> 78        -0.14330
      74 -> 80         0.29182
      75 -> 79        -0.13659
      75 -> 81         0.31981

 Excited State  13:      Singlet-A      5.7397 eV  216.01 nm  f=0.0204  <S**2>=0.000
      70 -> 77        -0.12183
      71 -> 76        -0.34505
      72 -> 78         0.26669
      74 -> 81        -0.26599
      75 -> 80         0.45090

 Excited State  14:      Singlet-A      5.7443 eV  215.84 nm  f=0.0635  <S**2>=0.000
      70 -> 76         0.10345
      71 -> 77         0.17288
      72 -> 79        -0.21804
      73 -> 78        -0.31129
      74 -> 80         0.43565
      75 -> 81        -0.28877

 Excited State  15:      Singlet-A      5.7538 eV  215.48 nm  f=0.0001  <S**2>=0.000
      72 -> 79         0.28557
      73 -> 78         0.49749
      74 -> 80         0.23507
      75 -> 81        -0.30768

 Excited State  16:      Singlet-A      5.7561 eV  215.40 nm  f=0.1595  <S**2>=0.000
      71 -> 76         0.29715
      72 -> 76        -0.11556
      72 -> 78         0.38786
      73 -> 77         0.12236
      73 -> 79         0.42619
      74 -> 79         0.14764
      75 -> 78         0.13615

 The electronic state is 1-A.
 Alpha  occ. eigenvalues --  -19.17439 -19.17439 -10.24562 -10.24562 -10.19218
 Alpha  occ. eigenvalues --  -10.19217 -10.19124 -10.19124 -10.19060 -10.19059
 Alpha  occ. eigenvalues --  -10.18788 -10.18788 -10.18647 -10.18619 -10.18279
 Alpha  occ. eigenvalues --  -10.18278 -10.18139 -10.18139 -10.18009 -10.18009
 Alpha  occ. eigenvalues --  -10.17697 -10.17696  -1.05629  -1.05420  -0.86995
 Alpha  occ. eigenvalues --   -0.85900  -0.81375  -0.80805  -0.78614  -0.75059
 Alpha  occ. eigenvalues --   -0.72935  -0.72873  -0.72065  -0.70169  -0.62948
 Alpha  occ. eigenvalues --   -0.62040  -0.61482  -0.61027  -0.59779  -0.56753
 Alpha  occ. eigenvalues --   -0.54495  -0.54383  -0.51483  -0.49776  -0.49403
 Alpha  occ. eigenvalues --   -0.48698  -0.46384  -0.46245  -0.44108  -0.42886
 Alpha  occ. eigenvalues --   -0.42597  -0.42059  -0.41530  -0.41527  -0.40993
 Alpha  occ. eigenvalues --   -0.39682  -0.39672  -0.39302  -0.38615  -0.36564
 Alpha  occ. eigenvalues --   -0.35979  -0.35785  -0.35199  -0.34088  -0.34008
 Alpha  occ. eigenvalues --   -0.33243  -0.31262  -0.30065  -0.30054  -0.27023
 Alpha  occ. eigenvalues --   -0.26634  -0.22645  -0.22580  -0.19823  -0.19610
 Alpha virt. eigenvalues --   -0.03102  -0.02923   0.00354   0.00862   0.03913
 Alpha virt. eigenvalues --    0.04127   0.06997   0.07113   0.10220   0.10431
 Alpha virt. eigenvalues --    0.11231   0.11359   0.11820   0.12030   0.14459

 Mulliken charges:
               1
     1  C   -0.133550
     2  C   -0.191903
     3  C    0.114911
     4  C    0.131810
     5  C   -0.195495
     6  C   -0.137340
     7  H    0.126115
     8  H    0.139947
     9  C   -0.056808
    10  C   -0.194785
    11  H    0.124531
    12  H    0.124651
    13  C   -0.196068
    14  C    0.329812
    15  H    0.130883
    16  H    0.118664
    17  C   -0.137340
    18  C   -0.195490
    19  C    0.131803
    20  C    0.114910
    21  C   -0.191909
    22  C   -0.133545
    23  H    0.130883
    24  H    0.124653
    25  H    0.124533
    26  C   -0.194786
    27  C   -0.056856
    28  H    0.139945
    29  H    0.126117
    30  C    0.329841
    31  C   -0.196062
    32  H    0.118665
    33  O   -0.641426
    34  H    0.406058
    35  O   -0.641430
    36  H    0.406060
 Sum of Mulliken charges =  -0.00000

 Dipole moment (field-independent basis, Debye):
    X=              0.0004    Y=              1.5443    Z=              0.0010  Tot=              1.5443
 Quadrupole moment (field-independent basis, Debye-Ang):
   XX=           -114.5295   YY=           -115.5784   ZZ=           -110.5861
   XY=              0.0055   XZ=             -8.6458   YZ=             -0.0006

 1\1\GINC-CCC091\SP\RB3LYP TD-FC\6-31G(d)\C20H14O2\ROOT\20-Feb-2025\0\\
 # td=(nstat=16) b3lyp/6-31g(d)\\binol | No.19\\0,1\C,0,-2.476934,1.996
 862,1.784995\C,0,-1.476093,1.18205,1.305342\C,0,-1.714133,0.280174,0.2
 30275\C,0,-3.030673,0.245727,-0.339973\C,0,-4.040202,1.099258,0.179366
 \C,0,-3.774599,1.958923,1.220065\H,0,-2.269362,2.67755,2.606669\H,0,-0
 .484808,1.219694,1.745001\C,0,-0.690152,-0.57437,-0.28707\C,0,-3.28757
 1,-0.645077,-1.413094\H,0,-5.032565,1.059376,-0.264672\H,0,-4.554545,2
 .607702,1.6092\C,0,-2.297299,-1.460796,-1.90201\C,0,-0.997237,-1.42693

 Normal termination of Gaussian 16 at Thu Feb 20 09:33:43 2025.
