 Gaussian 16, Revision C.02,
 Gaussian 16:  ES64L-G16RevC.02  7-Dec-2021

 ------------------------------
 # td=(nstat=16) b3lyp/6-31g(d)
 ------------------------------

 -------------
 binol | No.15
 -------------
 Symbolic Z-matrix:
 Charge =  0 Multiplicity = 1

                         Standard orientation:
 ---------------------------------------------------------------------
 Center     Atomic      Atomic             Coordinates (Angstroms)
 Number     Number       Type             X           Y           Z
 ---------------------------------------------------------------------
      1          6           0        2.918402   -1.882871   -1.484769
      2          6           0        1.795910   -1.404322   -0.847020
      3          6           0        1.809764   -0.165501   -0.145757
      4          6           0        3.031359    0.589108   -0.171489
      5          6           0        4.177345    0.060153   -0.823629
      6          6           0        4.131426   -1.155462   -1.463904
      7          1           0        2.869433   -2.829672   -2.016684
      8          1           0        0.874523   -1.971330   -0.893986
      9          6           0        0.655435    0.359171    0.536296
     10          6           0        3.061950    1.875341    0.423625
     11          1           0        5.092889    0.647643   -0.816409
     12          1           0        5.011935   -1.549273   -1.964099
     13          6           0        1.937354    2.400886    1.005656
     14          6           0        0.735567    1.651865    1.046882
     15          1           0        3.986258    2.447325    0.401972
     16          1           0        1.957804    3.394510    1.451006
     17          6           0       -4.131500    1.155377   -1.463827
     18          6           0       -4.177353   -0.060303   -0.823683
     19          6           0       -3.031354   -0.589247   -0.171552
     20          6           0       -1.809837    0.165448   -0.145723
     21          6           0       -1.796035    1.404351   -0.846847
     22          6           0       -2.918551    1.882903   -1.484575
     23          1           0       -3.986085   -2.447539    0.401855
     24          1           0       -5.012028    1.549149   -1.964023
     25          1           0       -5.092870   -0.647837   -0.816572
     26          6           0       -3.061835   -1.875466    0.423611
     27          6           0       -0.655453   -0.359135    0.536325
     28          1           0       -0.874646    1.971379   -0.893723
     29          1           0       -2.869660    2.829751   -2.016408
     30          6           0       -0.735469   -1.651750    1.047089
     31          6           0       -1.937229   -2.400863    1.005795
     32          1           0       -1.957662   -3.394419    1.451295
     33          8           0       -0.366451    2.171076    1.673335
     34          1           0       -0.154333    3.061667    1.991921
     35          8           0        0.366484   -2.170774    1.673855
     36          1           0        0.154796   -3.061869    1.991300
 ---------------------------------------------------------------------

 SCF Done:  E(RB3LYP) =  -921.010540858     A.U. after   14 cycles

 Excitation energies and oscillator strengths:

 Excited State   1:      Singlet-A      3.6110 eV  343.36 nm  f=0.1716  <S**2>=0.000
      75 -> 76         0.69471
 This state for optimization and/or second-order correction.
 Total Energy, E(TD-HF/TD-DFT) =  -920.877840522
 Copying the excited state density for this state as the 1-particle RhoCI density.

 Excited State   2:      Singlet-A      3.8527 eV  321.81 nm  f=0.0012  <S**2>=0.000
      74 -> 76         0.59324
      75 -> 77        -0.37324

 Excited State   3:      Singlet-A      4.0933 eV  302.90 nm  f=0.0053  <S**2>=0.000
      72 -> 76         0.15160
      72 -> 78         0.10885
      74 -> 76         0.32251
      75 -> 77         0.56347
      75 -> 79         0.14131

 Excited State   4:      Singlet-A      4.2609 eV  290.98 nm  f=0.0116  <S**2>=0.000
      72 -> 77         0.12193
      73 -> 76        -0.38751
      74 -> 77         0.40477
      74 -> 79         0.13009
      75 -> 78        -0.37157

 Excited State   5:      Singlet-A      4.4295 eV  279.91 nm  f=0.0002  <S**2>=0.000
      72 -> 76         0.52214
      73 -> 77        -0.11754
      74 -> 76        -0.16583
      74 -> 78        -0.18256
      75 -> 77        -0.15986
      75 -> 79         0.34967

 Excited State   6:      Singlet-A      4.4457 eV  278.89 nm  f=0.0580  <S**2>=0.000
      73 -> 76         0.42024
      74 -> 77         0.53313
      75 -> 78         0.14429

 Excited State   7:      Singlet-A      4.7845 eV  259.14 nm  f=0.0138  <S**2>=0.000
      72 -> 76         0.36864
      73 -> 77         0.46069
      75 -> 79        -0.37619

 Excited State   8:      Singlet-A      4.8265 eV  256.88 nm  f=0.0593  <S**2>=0.000
      72 -> 77        -0.37310
      73 -> 76        -0.32334
      74 -> 77         0.14192
      74 -> 79         0.17922
      75 -> 78         0.44077

 Excited State   9:      Singlet-A      4.9164 eV  252.19 nm  f=0.0023  <S**2>=0.000
      73 -> 77         0.30228
      74 -> 78         0.52870
      75 -> 79         0.34435

 Excited State  10:      Singlet-A      4.9748 eV  249.22 nm  f=0.0073  <S**2>=0.000
      72 -> 77         0.43382
      74 -> 79         0.49052
      75 -> 78         0.22591

 Excited State  11:      Singlet-A      5.1998 eV  238.44 nm  f=0.0031  <S**2>=0.000
      71 -> 76         0.59127
      72 -> 77         0.11345
      75 -> 80        -0.35511

 Excited State  12:      Singlet-A      5.4356 eV  228.10 nm  f=0.1504  <S**2>=0.000
      71 -> 76         0.34810
      74 -> 79         0.13588
      75 -> 80         0.57307

 Excited State  13:      Singlet-A      5.5736 eV  222.45 nm  f=0.0898  <S**2>=0.000
      70 -> 76         0.26678
      71 -> 77         0.35739
      72 -> 76         0.11640
      73 -> 77        -0.23688
      74 -> 78         0.22023
      74 -> 80        -0.25957
      75 -> 79        -0.13437
      75 -> 81        -0.28061

 Excited State  14:      Singlet-A      5.7250 eV  216.57 nm  f=0.0368  <S**2>=0.000
      71 -> 77        -0.26126
      72 -> 78         0.50893
      73 -> 79        -0.18222
      74 -> 78         0.16922
      74 -> 80        -0.17300
      75 -> 79        -0.11439
      75 -> 81         0.20460

 Excited State  15:      Singlet-A      5.7340 eV  216.22 nm  f=0.1045  <S**2>=0.000
      72 -> 77         0.12600
      72 -> 79        -0.39954
      73 -> 78         0.53137
      74 -> 79        -0.13314
      75 -> 78         0.10387

 Excited State  16:      Singlet-A      5.7708 eV  214.85 nm  f=0.0230  <S**2>=0.000
      73 -> 77        -0.11111
      73 -> 79        -0.39466
      74 -> 80         0.50431
      75 -> 81        -0.19408

 The electronic state is 1-A.
 Alpha  occ. eigenvalues --  -19.17507 -19.17507 -10.24652 -10.24651 -10.19333
 Alpha  occ. eigenvalues --  -10.19333 -10.19163 -10.19163 -10.19097 -10.19097
 Alpha  occ. eigenvalues --  -10.19033 -10.19006 -10.18812 -10.18812 -10.18222
 Alpha  occ. eigenvalues --  -10.18222 -10.18074 -10.18073 -10.17970 -10.17970
 Alpha  occ. eigenvalues --  -10.17616 -10.17615  -1.05717  -1.05602  -0.86923
 Alpha  occ. eigenvalues --   -0.85906  -0.81373  -0.80858  -0.78651  -0.75055
 Alpha  occ. eigenvalues --   -0.72950  -0.72932  -0.71874  -0.70388  -0.62988
 Alpha  occ. eigenvalues --   -0.62538  -0.61086  -0.61021  -0.59711  -0.56700
 Alpha  occ. eigenvalues --   -0.54643  -0.54456  -0.51596  -0.50125  -0.48994
 Alpha  occ. eigenvalues --   -0.48799  -0.46368  -0.46295  -0.44259  -0.43147
 Alpha  occ. eigenvalues --   -0.42409  -0.42217  -0.41568  -0.41462  -0.41438
 Alpha  occ. eigenvalues --   -0.39745  -0.39270  -0.39180  -0.38734  -0.36641
 Alpha  occ. eigenvalues --   -0.36098  -0.35736  -0.35123  -0.34130  -0.33852
 Alpha  occ. eigenvalues --   -0.33150  -0.31327  -0.30323  -0.29898  -0.28062
 Alpha  occ. eigenvalues --   -0.25709  -0.22726  -0.22556  -0.20462  -0.19035
 Alpha virt. eigenvalues --   -0.03949  -0.02215   0.00366   0.00705   0.03221
 Alpha virt. eigenvalues --    0.04953   0.07012   0.07034   0.10078   0.10433
 Alpha virt. eigenvalues --    0.10892   0.11449   0.11956   0.12041   0.14385

 Mulliken charges:
               1
     1  C   -0.139313
     2  C   -0.176438
     3  C    0.116966
     4  C    0.132750
     5  C   -0.194119
     6  C   -0.137305
     7  H    0.123744
     8  H    0.135476
     9  C   -0.027940
    10  C   -0.196381
    11  H    0.124137
    12  H    0.124408
    13  C   -0.197455
    14  C    0.291947
    15  H    0.131666
    16  H    0.118873
    17  C   -0.137294
    18  C   -0.194129
    19  C    0.132770
    20  C    0.116934
    21  C   -0.176406
    22  C   -0.139329
    23  H    0.131665
    24  H    0.124406
    25  H    0.124134
    26  C   -0.196381
    27  C   -0.027945
    28  H    0.135495
    29  H    0.123748
    30  C    0.291937
    31  C   -0.197448
    32  H    0.118868
    33  O   -0.637430
    34  H    0.406408
    35  O   -0.637428
    36  H    0.406409
 Sum of Mulliken charges =  -0.00000

 Dipole moment (field-independent basis, Debye):
    X=              0.0007    Y=             -0.0004    Z=              0.7147  Tot=              0.7147
 Quadrupole moment (field-independent basis, Debye-Ang):
   XX=           -116.5896   YY=           -100.8080   ZZ=           -124.5821
   XY=              6.1925   XZ=              0.0016   YZ=              0.0043

 1\1\GINC-CCC067\SP\RB3LYP TD-FC\6-31G(d)\C20H14O2\ROOT\20-Feb-2025\0\\
 # td=(nstat=16) b3lyp/6-31g(d)\\binol | No.15\\0,1\C,0,-2.918402,-1.88
 2871,1.484769\C,0,-1.79591,-1.404322,0.84702\C,0,-1.809764,-0.165501,0
 .145757\C,0,-3.031359,0.589108,0.171489\C,0,-4.177345,0.060153,0.82362
 9\C,0,-4.131426,-1.155462,1.463904\H,0,-2.869433,-2.829672,2.016684\H,
 0,-0.874523,-1.97133,0.893986\C,0,-0.655435,0.359171,-0.536296\C,0,-3.
 06195,1.875341,-0.423625\H,0,-5.092889,0.647643,0.816409\H,0,-5.011935
 ,-1.549273,1.964099\C,0,-1.937354,2.400886,-1.005656\C,0,-0.735567,1.6

 Normal termination of Gaussian 16 at Thu Feb 20 09:32:40 2025.
