 Gaussian 16, Revision C.02,
 Gaussian 16:  ES64L-G16RevC.02  7-Dec-2021

 ------------------------------
 # td=(nstat=16) b3lyp/6-31g(d)
 ------------------------------

 ------------
 binol | No.5
 ------------
 Symbolic Z-matrix:
 Charge =  0 Multiplicity = 1

                         Standard orientation:
 ---------------------------------------------------------------------
 Center     Atomic      Atomic             Coordinates (Angstroms)
 Number     Number       Type             X           Y           Z
 ---------------------------------------------------------------------
      1          6           0        2.919065    1.882664   -1.484515
      2          6           0        1.796379    1.404248   -0.847037
      3          6           0        1.809944    0.165388   -0.145790
      4          6           0        3.031402   -0.589387   -0.171304
      5          6           0        4.177587   -0.060617   -0.823289
      6          6           0        4.131972    1.155020   -1.463511
      7          1           0        2.870378    2.829508   -2.016379
      8          1           0        0.875081    1.971405   -0.894094
      9          6           0        0.655367   -0.359163    0.535872
     10          6           0        3.061749   -1.875572    0.423924
     11          1           0        5.093018   -0.648284   -0.815977
     12          1           0        5.012621    1.548701   -1.963562
     13          6           0        1.936925   -2.400935    1.005757
     14          6           0        0.735180   -1.651828    1.046591
     15          1           0        3.986016   -2.447626    0.402489
     16          1           0        1.957207   -3.394414    1.451432
     17          6           0       -4.131968   -1.155026   -1.463511
     18          6           0       -4.177585    0.060613   -0.823292
     19          6           0       -3.031402    0.589386   -0.171308
     20          6           0       -1.809942   -0.165387   -0.145790
     21          6           0       -1.796375   -1.404249   -0.847034
     22          6           0       -2.919060   -1.882670   -1.484511
     23          1           0       -3.986019    2.447625    0.402481
     24          1           0       -5.012615   -1.548710   -1.963562
     25          1           0       -5.093017    0.648278   -0.815983
     26          6           0       -3.061752    1.875572    0.423917
     27          6           0       -0.655367    0.359167    0.535871
     28          1           0       -0.875076   -1.971406   -0.894086
     29          1           0       -2.870371   -2.829515   -2.016371
     30          6           0       -0.735183    1.651833    1.046588
     31          6           0       -1.936929    2.400937    1.005751
     32          1           0       -1.957213    3.394417    1.451426
     33          8           0       -0.366953   -2.170813    1.673077
     34          1           0       -0.155009   -3.061558    1.991336
     35          8           0        0.366948    2.170819    1.673078
     36          1           0        0.155000    3.061564    1.991337
 ---------------------------------------------------------------------

 SCF Done:  E(RB3LYP) =  -921.010540903     A.U. after   14 cycles

 Excitation energies and oscillator strengths:

 Excited State   1:      Singlet-A      3.6107 eV  343.38 nm  f=0.1717  <S**2>=0.000
      75 -> 76         0.69472
 This state for optimization and/or second-order correction.
 Total Energy, E(TD-HF/TD-DFT) =  -920.877849989
 Copying the excited state density for this state as the 1-particle RhoCI density.

 Excited State   2:      Singlet-A      3.8527 eV  321.81 nm  f=0.0012  <S**2>=0.000
      74 -> 76         0.59326
      75 -> 77        -0.37321

 Excited State   3:      Singlet-A      4.0933 eV  302.90 nm  f=0.0053  <S**2>=0.000
      72 -> 76         0.15163
      72 -> 78         0.10884
      74 -> 76         0.32246
      75 -> 77         0.56348
      75 -> 79         0.14137

 Excited State   4:      Singlet-A      4.2609 eV  290.98 nm  f=0.0115  <S**2>=0.000
      72 -> 77         0.12191
      73 -> 76         0.38809
      74 -> 77         0.40395
      74 -> 79         0.13010
      75 -> 78        -0.37190

 Excited State   5:      Singlet-A      4.4294 eV  279.91 nm  f=0.0002  <S**2>=0.000
      72 -> 76         0.52215
      73 -> 77         0.11743
      74 -> 76        -0.16587
      74 -> 78        -0.18243
      75 -> 77        -0.15989
      75 -> 79         0.34972

 Excited State   6:      Singlet-A      4.4458 eV  278.88 nm  f=0.0579  <S**2>=0.000
      73 -> 76        -0.41977
      74 -> 77         0.53369
      75 -> 78         0.14362

 Excited State   7:      Singlet-A      4.7844 eV  259.14 nm  f=0.0138  <S**2>=0.000
      72 -> 76        -0.36864
      73 -> 77         0.46040
      75 -> 79         0.37652

 Excited State   8:      Singlet-A      4.8266 eV  256.88 nm  f=0.0595  <S**2>=0.000
      72 -> 77        -0.37267
      73 -> 76         0.32328
      74 -> 77         0.14210
      74 -> 79         0.17951
      75 -> 78         0.44098

 Excited State   9:      Singlet-A      4.9165 eV  252.18 nm  f=0.0023  <S**2>=0.000
      73 -> 77        -0.30269
      74 -> 78         0.52868
      75 -> 79         0.34399

 Excited State  10:      Singlet-A      4.9750 eV  249.21 nm  f=0.0073  <S**2>=0.000
      72 -> 77         0.43412
      74 -> 79         0.49038
      75 -> 78         0.22553

 Excited State  11:      Singlet-A      5.1995 eV  238.45 nm  f=0.0031  <S**2>=0.000
      71 -> 76         0.59114
      72 -> 77         0.11358
      75 -> 80        -0.35530

 Excited State  12:      Singlet-A      5.4353 eV  228.11 nm  f=0.1504  <S**2>=0.000
      71 -> 76         0.34830
      74 -> 79         0.13588
      75 -> 80         0.57299

 Excited State  13:      Singlet-A      5.5737 eV  222.45 nm  f=0.0898  <S**2>=0.000
      70 -> 76         0.26682
      71 -> 77         0.35715
      72 -> 76         0.11641
      73 -> 77         0.23697
      74 -> 78         0.22037
      74 -> 80        -0.25957
      75 -> 79        -0.13438
      75 -> 81        -0.28065

 Excited State  14:      Singlet-A      5.7250 eV  216.57 nm  f=0.0368  <S**2>=0.000
      71 -> 77        -0.26108
      72 -> 78         0.50896
      73 -> 79         0.18211
      74 -> 78         0.16919
      74 -> 80        -0.17314
      75 -> 79        -0.11430
      75 -> 81         0.20494

 Excited State  15:      Singlet-A      5.7340 eV  216.23 nm  f=0.1045  <S**2>=0.000
      72 -> 77        -0.12608
      72 -> 79         0.39949
      73 -> 78         0.53136
      74 -> 79         0.13322
      75 -> 78        -0.10389

 Excited State  16:      Singlet-A      5.7708 eV  214.85 nm  f=0.0229  <S**2>=0.000
      73 -> 77         0.11096
      73 -> 79         0.39518
      74 -> 80         0.50401
      75 -> 81        -0.19382

 The electronic state is 1-A.
 Alpha  occ. eigenvalues --  -19.17508 -19.17507 -10.24651 -10.24651 -10.19333
 Alpha  occ. eigenvalues --  -10.19332 -10.19163 -10.19163 -10.19097 -10.19097
 Alpha  occ. eigenvalues --  -10.19032 -10.19005 -10.18812 -10.18812 -10.18222
 Alpha  occ. eigenvalues --  -10.18222 -10.18073 -10.18073 -10.17970 -10.17970
 Alpha  occ. eigenvalues --  -10.17616 -10.17616  -1.05717  -1.05602  -0.86924
 Alpha  occ. eigenvalues --   -0.85906  -0.81373  -0.80857  -0.78651  -0.75056
 Alpha  occ. eigenvalues --   -0.72950  -0.72932  -0.71874  -0.70387  -0.62989
 Alpha  occ. eigenvalues --   -0.62539  -0.61085  -0.61021  -0.59711  -0.56700
 Alpha  occ. eigenvalues --   -0.54643  -0.54456  -0.51596  -0.50125  -0.48993
 Alpha  occ. eigenvalues --   -0.48799  -0.46368  -0.46296  -0.44259  -0.43148
 Alpha  occ. eigenvalues --   -0.42408  -0.42217  -0.41568  -0.41462  -0.41438
 Alpha  occ. eigenvalues --   -0.39746  -0.39270  -0.39180  -0.38734  -0.36641
 Alpha  occ. eigenvalues --   -0.36098  -0.35736  -0.35123  -0.34131  -0.33852
 Alpha  occ. eigenvalues --   -0.33150  -0.31327  -0.30323  -0.29897  -0.28063
 Alpha  occ. eigenvalues --   -0.25709  -0.22726  -0.22556  -0.20463  -0.19034
 Alpha virt. eigenvalues --   -0.03949  -0.02214   0.00366   0.00705   0.03220
 Alpha virt. eigenvalues --    0.04953   0.07012   0.07034   0.10079   0.10433
 Alpha virt. eigenvalues --    0.10892   0.11449   0.11957   0.12041   0.14385

 Mulliken charges:
               1
     1  C   -0.139330
     2  C   -0.176401
     3  C    0.116967
     4  C    0.132731
     5  C   -0.194118
     6  C   -0.137301
     7  H    0.123745
     8  H    0.135487
     9  C   -0.027929
    10  C   -0.196372
    11  H    0.124135
    12  H    0.124407
    13  C   -0.197478
    14  C    0.291946
    15  H    0.131668
    16  H    0.118865
    17  C   -0.137301
    18  C   -0.194118
    19  C    0.132731
    20  C    0.116968
    21  C   -0.176401
    22  C   -0.139330
    23  H    0.131668
    24  H    0.124407
    25  H    0.124135
    26  C   -0.196372
    27  C   -0.027929
    28  H    0.135487
    29  H    0.123745
    30  C    0.291946
    31  C   -0.197478
    32  H    0.118865
    33  O   -0.637430
    34  H    0.406408
    35  O   -0.637430
    36  H    0.406407
 Sum of Mulliken charges =  -0.00000

 Dipole moment (field-independent basis, Debye):
    X=             -0.0000    Y=             -0.0000    Z=              0.7159  Tot=              0.7159
 Quadrupole moment (field-independent basis, Debye-Ang):
   XX=           -116.5899   YY=           -100.8122   ZZ=           -124.5798
   XY=             -6.1893   XZ=             -0.0000   YZ=             -0.0000

 1\1\GINC-CCC131\SP\RB3LYP TD-FC\6-31G(d)\C20H14O2\ROOT\20-Feb-2025\0\\
 # td=(nstat=16) b3lyp/6-31g(d)\\binol | No.5\\0,1\C,0,-2.919065,-1.882
 664,-1.484515\C,0,-1.796379,-1.404248,-0.847037\C,0,-1.809944,-0.16538
 8,-0.14579\C,0,-3.031402,0.589387,-0.171304\C,0,-4.177587,0.060617,-0.
 823289\C,0,-4.131972,-1.15502,-1.463511\H,0,-2.870378,-2.829508,-2.016
 379\H,0,-0.875081,-1.971405,-0.894094\C,0,-0.655367,0.359163,0.535872\
 C,0,-3.061749,1.875572,0.423924\H,0,-5.093018,0.648284,-0.815977\H,0,-
 5.012621,-1.548701,-1.963562\C,0,-1.936925,2.400935,1.005757\C,0,-0.73

 Normal termination of Gaussian 16 at Thu Feb 20 09:32:20 2025.
