 Gaussian 16, Revision C.02,
 Gaussian 16:  ES64L-G16RevC.02  7-Dec-2021

 ------------------------------
 # td=(nstat=16) b3lyp/6-31g(d)
 ------------------------------

 ------------
 binol | No.1
 ------------
 Symbolic Z-matrix:
 Charge =  0 Multiplicity = 1

                         Standard orientation:
 ---------------------------------------------------------------------
 Center     Atomic      Atomic             Coordinates (Angstroms)
 Number     Number       Type             X           Y           Z
 ---------------------------------------------------------------------
      1          6           0       -1.622280    2.587348   -1.996161
      2          6           0       -1.207954    1.557501   -1.181637
      3          6           0       -0.119505    1.725564   -0.280051
      4          6           0        0.534481    3.002517   -0.245625
      5          6           0        0.081128    4.043614   -1.098833
      6          6           0       -0.974813    3.845858   -1.958207
      7          1           0       -2.455825    2.433344   -2.676635
      8          1           0       -1.710661    0.596672   -1.219340
      9          6           0        0.330977    0.670205    0.574229
     10          6           0        1.622280    3.189553    0.644839
     11          1           0        0.588292    5.005237   -1.058949
     12          1           0       -1.313042    4.649378   -2.606748
     13          6           0        2.046596    2.169676    1.460221
     14          6           0        1.399190    0.908732    1.426397
     15          1           0        2.121052    4.155245    0.674820
     16          1           0        2.882420    2.320509    2.141888
     17          6           0        0.974813   -3.845858   -1.958207
     18          6           0       -0.081128   -4.043614   -1.098833
     19          6           0       -0.534481   -3.002517   -0.245625
     20          6           0        0.119505   -1.725564   -0.280051
     21          6           0        1.207954   -1.557501   -1.181637
     22          6           0        1.622280   -2.587348   -1.996161
     23          1           0       -2.121052   -4.155245    0.674820
     24          1           0        1.313042   -4.649378   -2.606748
     25          1           0       -0.588292   -5.005237   -1.058949
     26          6           0       -1.622280   -3.189553    0.644839
     27          6           0       -0.330977   -0.670205    0.574229
     28          1           0        1.710661   -0.596672   -1.219340
     29          1           0        2.455825   -2.433344   -2.676635
     30          6           0       -1.399190   -0.908732    1.426397
     31          6           0       -2.046596   -2.169676    1.460221
     32          1           0       -2.882420   -2.320509    2.141888
     33          8           0        1.817777   -0.110891    2.237605
     34          1           0        2.562469    0.202934    2.773086
     35          8           0       -1.817777    0.110891    2.237605
     36          1           0       -2.562469   -0.202934    2.773086
 ---------------------------------------------------------------------

 SCF Done:  E(RB3LYP) =  -921.015748151     A.U. after   14 cycles

 Excitation energies and oscillator strengths:

 Excited State   1:      Singlet-B      3.8712 eV  320.28 nm  f=0.0202  <S**2>=0.000
      74 -> 77         0.35134
      75 -> 76         0.60774
 This state for optimization and/or second-order correction.
 Total Energy, E(TD-HF/TD-DFT) =  -920.873485007
 Copying the excited state density for this state as the 1-particle RhoCI density.

 Excited State   2:      Singlet-A      3.8839 eV  319.23 nm  f=0.0001  <S**2>=0.000
      74 -> 76         0.51143
      75 -> 77         0.48431

 Excited State   3:      Singlet-B      4.0694 eV  304.68 nm  f=0.1492  <S**2>=0.000
      72 -> 78        -0.10089
      74 -> 77         0.58579
      75 -> 76        -0.31640
      75 -> 78         0.12916

 Excited State   4:      Singlet-A      4.1194 eV  300.98 nm  f=0.0123  <S**2>=0.000
      72 -> 77         0.12101
      72 -> 79         0.10871
      73 -> 78         0.12355
      74 -> 76        -0.44119
      74 -> 78         0.12442
      75 -> 77         0.47487

 Excited State   5:      Singlet-B      4.5148 eV  274.61 nm  f=0.0330  <S**2>=0.000
      72 -> 76         0.37889
      73 -> 77         0.34791
      74 -> 77         0.13547
      74 -> 79         0.23480
      75 -> 76        -0.13501
      75 -> 78        -0.36951

 Excited State   6:      Singlet-A      4.5300 eV  273.70 nm  f=0.0000  <S**2>=0.000
      72 -> 77         0.31450
      73 -> 76         0.39036
      74 -> 76         0.16397
      74 -> 78         0.32621
      75 -> 77        -0.14962
      75 -> 79        -0.29480

 Excited State   7:      Singlet-B      4.7806 eV  259.35 nm  f=0.0021  <S**2>=0.000
      72 -> 76        -0.48909
      73 -> 77         0.50881

 Excited State   8:      Singlet-A      4.7815 eV  259.30 nm  f=0.0006  <S**2>=0.000
      72 -> 77         0.51688
      73 -> 76        -0.47866

 Excited State   9:      Singlet-A      4.8919 eV  253.45 nm  f=0.0009  <S**2>=0.000
      74 -> 78         0.49055
      75 -> 79         0.50548

 Excited State  10:      Singlet-B      4.8961 eV  253.23 nm  f=0.0060  <S**2>=0.000
      74 -> 79         0.52242
      75 -> 78         0.46472

 Excited State  11:      Singlet-B      5.5229 eV  224.49 nm  f=0.1952  <S**2>=0.000
      70 -> 77        -0.24025
      71 -> 76        -0.34073
      72 -> 76        -0.15958
      73 -> 77        -0.15923
      74 -> 79         0.18157
      74 -> 81        -0.25795
      75 -> 78        -0.16674
      75 -> 80         0.37719

 Excited State  12:      Singlet-A      5.5493 eV  223.42 nm  f=0.0918  <S**2>=0.000
      70 -> 76         0.29002
      71 -> 77         0.37153
      72 -> 77         0.14825
      73 -> 76         0.13652
      74 -> 78        -0.14329
      74 -> 80         0.29188
      75 -> 79         0.13658
      75 -> 81        -0.31988

 Excited State  13:      Singlet-B      5.7397 eV  216.01 nm  f=0.0202  <S**2>=0.000
      70 -> 77        -0.12165
      71 -> 76         0.34464
      72 -> 78        -0.26513
      74 -> 81         0.26708
      75 -> 80         0.45166

 Excited State  14:      Singlet-A      5.7442 eV  215.84 nm  f=0.0633  <S**2>=0.000
      70 -> 76        -0.10409
      71 -> 77         0.17354
      72 -> 79        -0.21485
      73 -> 78         0.30577
      74 -> 80         0.43837
      75 -> 81         0.29231

 Excited State  15:      Singlet-A      5.7538 eV  215.48 nm  f=0.0001  <S**2>=0.000
      72 -> 79        -0.28800
      73 -> 78         0.50105
      74 -> 80        -0.23030
      75 -> 81        -0.30457

 Excited State  16:      Singlet-B      5.7562 eV  215.39 nm  f=0.1600  <S**2>=0.000
      71 -> 76        -0.29708
      72 -> 76         0.11575
      72 -> 78        -0.38781
      73 -> 77         0.12255
      73 -> 79         0.42635
      74 -> 79        -0.14788
      75 -> 78         0.13638

 The electronic state is 1-A.
 Alpha  occ. eigenvalues --  -19.17438 -19.17438 -10.24562 -10.24562 -10.19218
 Alpha  occ. eigenvalues --  -10.19218 -10.19125 -10.19125 -10.19060 -10.19060
 Alpha  occ. eigenvalues --  -10.18788 -10.18788 -10.18647 -10.18619 -10.18278
 Alpha  occ. eigenvalues --  -10.18278 -10.18139 -10.18139 -10.18009 -10.18009
 Alpha  occ. eigenvalues --  -10.17697 -10.17696  -1.05629  -1.05419  -0.86995
 Alpha  occ. eigenvalues --   -0.85900  -0.81375  -0.80805  -0.78614  -0.75059
 Alpha  occ. eigenvalues --   -0.72935  -0.72873  -0.72065  -0.70169  -0.62948
 Alpha  occ. eigenvalues --   -0.62040  -0.61482  -0.61027  -0.59780  -0.56753
 Alpha  occ. eigenvalues --   -0.54495  -0.54384  -0.51482  -0.49776  -0.49403
 Alpha  occ. eigenvalues --   -0.48698  -0.46384  -0.46245  -0.44109  -0.42886
 Alpha  occ. eigenvalues --   -0.42597  -0.42059  -0.41531  -0.41527  -0.40993
 Alpha  occ. eigenvalues --   -0.39682  -0.39673  -0.39302  -0.38615  -0.36564
 Alpha  occ. eigenvalues --   -0.35979  -0.35785  -0.35198  -0.34088  -0.34008
 Alpha  occ. eigenvalues --   -0.33244  -0.31263  -0.30065  -0.30054  -0.27022
 Alpha  occ. eigenvalues --   -0.26634  -0.22645  -0.22580  -0.19823  -0.19610
 Alpha virt. eigenvalues --   -0.03102  -0.02923   0.00354   0.00862   0.03912
 Alpha virt. eigenvalues --    0.04126   0.06997   0.07113   0.10220   0.10431
 Alpha virt. eigenvalues --    0.11232   0.11359   0.11820   0.12030   0.14459

 Mulliken charges:
               1
     1  C   -0.133541
     2  C   -0.191919
     3  C    0.114925
     4  C    0.131778
     5  C   -0.195494
     6  C   -0.137337
     7  H    0.126114
     8  H    0.139947
     9  C   -0.056841
    10  C   -0.194768
    11  H    0.124534
    12  H    0.124651
    13  C   -0.196060
    14  C    0.329847
    15  H    0.130886
    16  H    0.118661
    17  C   -0.137337
    18  C   -0.195494
    19  C    0.131778
    20  C    0.114925
    21  C   -0.191919
    22  C   -0.133541
    23  H    0.130886
    24  H    0.124651
    25  H    0.124534
    26  C   -0.194768
    27  C   -0.056841
    28  H    0.139947
    29  H    0.126114
    30  C    0.329847
    31  C   -0.196060
    32  H    0.118661
    33  O   -0.641440
    34  H    0.406058
    35  O   -0.641440
    36  H    0.406058
 Sum of Mulliken charges =  -0.00000

 Dipole moment (field-independent basis, Debye):
    X=              0.0000    Y=              0.0000    Z=              1.5444  Tot=              1.5444
 Quadrupole moment (field-independent basis, Debye-Ang):
   XX=           -109.4920   YY=           -115.6238   ZZ=           -115.5776
   XY=              8.3206   XZ=              0.0000   YZ=             -0.0000

 1\1\GINC-CCC035\SP\RB3LYP TD-FC\6-31G(d)\C20H14O2\ROOT\20-Feb-2025\0\\
 # td=(nstat=16) b3lyp/6-31g(d)\\binol | No.1\\0,1\C,0,-2.477476,-1.996
 161,1.785574\C,0,-1.476456,-1.181637,1.305771\C,0,-1.714282,-0.280051,
 0.230409\C,0,-3.03071,-0.245625,-0.339964\C,0,-4.040442,-1.098833,0.17
 9509\C,0,-3.775079,-1.958207,1.220519\H,0,-2.270099,-2.676635,2.607468
 \H,0,-0.485241,-1.21934,1.745543\C,0,-0.690133,0.574229,-0.287119\C,0,
 -3.287428,0.644839,-1.413456\H,0,-5.032737,-1.058949,-0.264659\H,0,-4.
 555143,-2.606748,1.609804\C,0,-2.297001,1.460221,-1.902586\C,0,-0.9969

 Normal termination of Gaussian 16 at Thu Feb 20 09:30:41 2025.
