 Gaussian 16, Revision C.02,
 Gaussian 16:  ES64L-G16RevC.02  7-Dec-2021

 ------------------------------
 # td=(nstat=16) b3lyp/6-31g(d)
 ------------------------------

 -------------
 binol | No.17
 -------------
 Symbolic Z-matrix:
 Charge =  0 Multiplicity = 1

                         Standard orientation:
 ---------------------------------------------------------------------
 Center     Atomic      Atomic             Coordinates (Angstroms)
 Number     Number       Type             X           Y           Z
 ---------------------------------------------------------------------
      1          6           0        2.786290   -1.857470   -1.684551
      2          6           0        1.696859   -1.373840   -0.995643
      3          6           0        1.782354   -0.181693   -0.223246
      4          6           0        3.039926    0.509300   -0.197563
      5          6           0        4.146020   -0.019468   -0.915042
      6          6           0        4.028579   -1.180183   -1.643464
      7          1           0        2.691395   -2.768990   -2.269176
      8          1           0        0.749081   -1.898924   -1.042720
      9          6           0        0.663358    0.343530    0.501635
     10          6           0        3.144357    1.716790    0.538522
     11          1           0        5.091464    0.517538   -0.879524
     12          1           0        4.880662   -1.575036   -2.189998
     13          6           0        2.061608    2.222813    1.213290
     14          6           0        0.820945    1.537582    1.193154
     15          1           0        4.095718    2.242738    0.559889
     16          1           0        2.146695    3.151355    1.775972
     17          6           0       -4.028397    1.180263   -1.643509
     18          6           0       -4.145863    0.019376   -0.915340
     19          6           0       -3.039848   -0.509409   -0.197771
     20          6           0       -1.782306    0.181649   -0.223224
     21          6           0       -1.696798    1.374011   -0.995274
     22          6           0       -2.786181    1.857700   -1.684221
     23          1           0       -4.095683   -2.242942    0.559442
     24          1           0       -4.880432    1.575170   -2.190079
     25          1           0       -5.091284   -0.517684   -0.880067
     26          6           0       -3.144339   -1.716954    0.538228
     27          6           0       -0.663378   -0.343719    0.501591
     28          1           0       -0.749082    1.899227   -1.041982
     29          1           0       -2.691320    2.769409   -2.268558
     30          6           0       -0.821061   -1.537658    1.193255
     31          6           0       -2.061716   -2.222906    1.213235
     32          1           0       -2.146899   -3.151412    1.775964
     33          8           0       -0.255512    2.035235    1.877183
     34          1           0        0.002943    2.866572    2.303601
     35          8           0        0.255218   -2.035107    1.877647
     36          1           0       -0.003346   -2.866323    2.304230
 ---------------------------------------------------------------------

 SCF Done:  E(RB3LYP) =  -921.015115178     A.U. after   14 cycles

 Excitation energies and oscillator strengths:

 Excited State   1:      Singlet-A      3.7321 eV  332.21 nm  f=0.1237  <S**2>=0.000
      74 -> 77         0.12067
      75 -> 76         0.68829
 This state for optimization and/or second-order correction.
 Total Energy, E(TD-HF/TD-DFT) =  -920.877964149
 Copying the excited state density for this state as the 1-particle RhoCI density.

 Excited State   2:      Singlet-A      3.8842 eV  319.20 nm  f=0.0001  <S**2>=0.000
      74 -> 76         0.51254
      75 -> 77         0.48255

 Excited State   3:      Singlet-A      4.1182 eV  301.06 nm  f=0.0103  <S**2>=0.000
      72 -> 76        -0.12327
      72 -> 78        -0.12060
      73 -> 79        -0.10656
      74 -> 76        -0.43698
      75 -> 77         0.48046
      75 -> 79         0.12526

 Excited State   4:      Singlet-A      4.2206 eV  293.76 nm  f=0.0492  <S**2>=0.000
      72 -> 77         0.10851
      73 -> 76        -0.14273
      74 -> 77         0.61663
      74 -> 79         0.10229
      75 -> 78         0.23103

 Excited State   5:      Singlet-A      4.4652 eV  277.67 nm  f=0.0413  <S**2>=0.000
      72 -> 77        -0.14938
      73 -> 76         0.49276
      74 -> 77         0.28166
      74 -> 79        -0.13617
      75 -> 76        -0.10167
      75 -> 78        -0.34864

 Excited State   6:      Singlet-A      4.4912 eV  276.06 nm  f=0.0000  <S**2>=0.000
      72 -> 76         0.48426
      73 -> 77        -0.18725
      74 -> 76        -0.17021
      74 -> 78        -0.22321
      75 -> 77         0.13728
      75 -> 79        -0.35748

 Excited State   7:      Singlet-A      4.7940 eV  258.62 nm  f=0.0054  <S**2>=0.000
      72 -> 76         0.40594
      73 -> 77         0.53043
      75 -> 79         0.21681

 Excited State   8:      Singlet-A      4.8119 eV  257.66 nm  f=0.0170  <S**2>=0.000
      72 -> 77         0.50835
      73 -> 76         0.39125
      75 -> 78         0.27273

 Excited State   9:      Singlet-A      4.9014 eV  252.96 nm  f=0.0020  <S**2>=0.000
      73 -> 77         0.16175
      74 -> 78         0.52470
      75 -> 79        -0.44124

 Excited State  10:      Singlet-A      4.9338 eV  251.30 nm  f=0.0224  <S**2>=0.000
      72 -> 77         0.27876
      74 -> 79         0.51998
      75 -> 78        -0.37927

 Excited State  11:      Singlet-A      5.3663 eV  231.04 nm  f=0.0347  <S**2>=0.000
      71 -> 76        -0.46890
      75 -> 80         0.48810

 Excited State  12:      Singlet-A      5.5629 eV  222.88 nm  f=0.0786  <S**2>=0.000
      70 -> 76        -0.29073
      71 -> 77         0.36453
      72 -> 76        -0.11655
      73 -> 77         0.18391
      74 -> 78        -0.17768
      74 -> 80         0.28009
      75 -> 79        -0.11978
      75 -> 81         0.31529

 Excited State  13:      Singlet-A      5.5721 eV  222.51 nm  f=0.1170  <S**2>=0.000
      71 -> 76         0.48891
      74 -> 79        -0.10026
      75 -> 80         0.44555

 Excited State  14:      Singlet-A      5.7485 eV  215.68 nm  f=0.1700  <S**2>=0.000
      72 -> 77         0.14397
      72 -> 79        -0.41221
      73 -> 76        -0.11539
      73 -> 78         0.48842
      74 -> 79        -0.16618
      75 -> 78        -0.12998

 Excited State  15:      Singlet-A      5.7525 eV  215.53 nm  f=0.0027  <S**2>=0.000
      72 -> 78         0.52110
      73 -> 79        -0.25016
      74 -> 80        -0.33040
      75 -> 81         0.21166

 Excited State  16:      Singlet-A      5.7737 eV  214.74 nm  f=0.0246  <S**2>=0.000
      70 -> 76         0.15709
      71 -> 77         0.20802
      72 -> 78         0.26695
      73 -> 79        -0.26170
      74 -> 80         0.40943
      75 -> 81        -0.30962

 The electronic state is 1-A.
 Alpha  occ. eigenvalues --  -19.17496 -19.17496 -10.24601 -10.24601 -10.19223
 Alpha  occ. eigenvalues --  -10.19222 -10.19139 -10.19139 -10.19073 -10.19073
 Alpha  occ. eigenvalues --  -10.18781 -10.18780 -10.18779 -10.18751 -10.18244
 Alpha  occ. eigenvalues --  -10.18244 -10.18106 -10.18106 -10.17986 -10.17986
 Alpha  occ. eigenvalues --  -10.17655 -10.17655  -1.05666  -1.05523  -0.86960
 Alpha  occ. eigenvalues --   -0.85900  -0.81369  -0.80826  -0.78619  -0.75066
 Alpha  occ. eigenvalues --   -0.72927  -0.72916  -0.71931  -0.70280  -0.62945
 Alpha  occ. eigenvalues --   -0.62340  -0.61224  -0.61032  -0.59750  -0.56732
 Alpha  occ. eigenvalues --   -0.54549  -0.54419  -0.51509  -0.49994  -0.49159
 Alpha  occ. eigenvalues --   -0.48737  -0.46381  -0.46265  -0.44143  -0.43003
 Alpha  occ. eigenvalues --   -0.42381  -0.42194  -0.41544  -0.41495  -0.41226
 Alpha  occ. eigenvalues --   -0.39734  -0.39437  -0.39313  -0.38672  -0.36592
 Alpha  occ. eigenvalues --   -0.36062  -0.35723  -0.35178  -0.34150  -0.33918
 Alpha  occ. eigenvalues --   -0.33211  -0.31284  -0.30199  -0.29959  -0.27546
 Alpha  occ. eigenvalues --   -0.26109  -0.22638  -0.22602  -0.20257  -0.19214
 Alpha virt. eigenvalues --   -0.03517  -0.02516   0.00389   0.00813   0.03439
 Alpha virt. eigenvalues --    0.04649   0.07034   0.07050   0.10155   0.10493
 Alpha virt. eigenvalues --    0.11135   0.11332   0.11932   0.11997   0.14399

 Mulliken charges:
               1
     1  C   -0.136101
     2  C   -0.186050
     3  C    0.118841
     4  C    0.131818
     5  C   -0.195379
     6  C   -0.137230
     7  H    0.124897
     8  H    0.136822
     9  C   -0.045974
    10  C   -0.195959
    11  H    0.124302
    12  H    0.124413
    13  C   -0.195482
    14  C    0.315218
    15  H    0.131117
    16  H    0.118759
    17  C   -0.137227
    18  C   -0.195392
    19  C    0.131814
    20  C    0.118861
    21  C   -0.186016
    22  C   -0.136119
    23  H    0.131117
    24  H    0.124410
    25  H    0.124302
    26  C   -0.195948
    27  C   -0.046038
    28  H    0.136823
    29  H    0.124894
    30  C    0.315241
    31  C   -0.195488
    32  H    0.118759
    33  O   -0.640377
    34  H    0.406367
    35  O   -0.640360
    36  H    0.406369
 Sum of Mulliken charges =  -0.00000

 Dipole moment (field-independent basis, Debye):
    X=             -0.0001    Y=              0.0002    Z=              1.1910  Tot=              1.1910
 Quadrupole moment (field-independent basis, Debye-Ang):
   XX=           -116.0008   YY=           -104.4654   ZZ=           -120.9934
   XY=              7.0068   XZ=             -0.0004   YZ=             -0.0001

 1\1\GINC-CCC079\SP\RB3LYP TD-FC\6-31G(d)\C20H14O2\ROOT\20-Feb-2025\0\\
 # td=(nstat=16) b3lyp/6-31g(d)\\binol | No.17\\0,1\C,0,-2.78629,-1.857
 47,1.684551\C,0,-1.696859,-1.37384,0.995643\C,0,-1.782354,-0.181693,0.
 223246\C,0,-3.039926,0.5093,0.197563\C,0,-4.14602,-0.019468,0.915042\C
 ,0,-4.028579,-1.180183,1.643464\H,0,-2.691395,-2.76899,2.269176\H,0,-0
 .749081,-1.898924,1.04272\C,0,-0.663358,0.34353,-0.501635\C,0,-3.14435
 7,1.71679,-0.538522\H,0,-5.091464,0.517538,0.879524\H,0,-4.880662,-1.5
 75036,2.189998\C,0,-2.061608,2.222813,-1.21329\C,0,-0.820945,1.537582,

 Normal termination of Gaussian 16 at Thu Feb 20 09:34:16 2025.
