 Gaussian 16, Revision C.02,
 Gaussian 16:  ES64L-G16RevC.02  7-Dec-2021

 ------------------------------
 # td=(nstat=16) b3lyp/6-31g(d)
 ------------------------------

 -------------
 binol | No.10
 -------------
 Symbolic Z-matrix:
 Charge =  0 Multiplicity = 1

                         Standard orientation:
 ---------------------------------------------------------------------
 Center     Atomic      Atomic             Coordinates (Angstroms)
 Number     Number       Type             X           Y           Z
 ---------------------------------------------------------------------
      1          6           0       -3.131365    1.824923    1.195616
      2          6           0       -1.946151    1.344387    0.678689
      3          6           0       -1.860367    0.116928   -0.038926
      4          6           0       -3.054013   -0.685309    0.013130
      5          6           0       -4.279983   -0.146951    0.487542
      6          6           0       -4.336034    1.107707    1.044792
      7          1           0       -3.126782    2.761294    1.748099
      8          1           0       -1.046420    1.900618    0.888705
      9          6           0       -0.635575   -0.406493   -0.680007
     10          6           0       -2.969685   -2.073958   -0.254902
     11          1           0       -5.164675   -0.778709    0.450045
     12          1           0       -5.271824    1.510398    1.422199
     13          6           0       -1.751545   -2.628406   -0.515895
     14          6           0       -0.603072   -1.810254   -0.680279
     15          1           0       -3.863037   -2.689737   -0.190949
     16          1           0       -1.647049   -3.702145   -0.663207
     17          6           0        4.335635   -1.108218    1.044873
     18          6           0        4.279892    0.146469    0.487669
     19          6           0        3.054062    0.685120    0.013232
     20          6           0        1.860282   -0.116865   -0.038953
     21          6           0        1.945746   -1.344370    0.678631
     22          6           0        3.130800   -1.825172    1.195663
     23          1           0        3.863406    2.689457   -0.190718
     24          1           0        5.271327   -1.511131    1.422287
     25          1           0        5.164735    0.778022    0.450237
     26          6           0        2.969954    2.073824   -0.254650
     27          6           0        0.635596    0.406846   -0.680103
     28          1           0        1.045815   -1.900348    0.888587
     29          1           0        3.125987   -2.761524    1.748172
     30          6           0        0.603227    1.810580   -0.679834
     31          6           0        1.751883    2.628488   -0.515476
     32          1           0        1.647564    3.702255   -0.662719
     33          8           0        0.499477   -2.423274   -1.234022
     34          1           0        0.337902   -3.377452   -1.285957
     35          8           0       -0.498960    2.423942   -1.233902
     36          1           0       -0.336797    3.377997   -1.286275
 ---------------------------------------------------------------------

 SCF Done:  E(RB3LYP) =  -920.955721819     A.U. after   14 cycles

 Excitation energies and oscillator strengths:

 Excited State   1:      Singlet-A      3.3202 eV  373.42 nm  f=0.2525  <S**2>=0.000
      75 -> 76         0.69969
 This state for optimization and/or second-order correction.
 Total Energy, E(TD-HF/TD-DFT) =  -920.833705859
 Copying the excited state density for this state as the 1-particle RhoCI density.

 Excited State   2:      Singlet-A      3.6259 eV  341.94 nm  f=0.0009  <S**2>=0.000
      74 -> 76         0.67609
      75 -> 77         0.14047
      75 -> 79        -0.10604

 Excited State   3:      Singlet-A      3.9737 eV  312.01 nm  f=0.0312  <S**2>=0.000
      73 -> 76         0.58759
      74 -> 79        -0.10112
      75 -> 78        -0.35741

 Excited State   4:      Singlet-A      4.0238 eV  308.12 nm  f=0.0012  <S**2>=0.000
      72 -> 76        -0.44363
      75 -> 77         0.47602
      75 -> 79         0.23729

 Excited State   5:      Singlet-A      4.1949 eV  295.56 nm  f=0.0014  <S**2>=0.000
      72 -> 76         0.42449
      74 -> 76        -0.16007
      74 -> 78        -0.12078
      75 -> 77         0.48053
      75 -> 79        -0.18399

 Excited State   6:      Singlet-A      4.4408 eV  279.19 nm  f=0.0339  <S**2>=0.000
      71 -> 76         0.30047
      72 -> 77         0.16198
      73 -> 76         0.26453
      74 -> 77         0.47502
      75 -> 78         0.26760

 Excited State   7:      Singlet-A      4.5928 eV  269.95 nm  f=0.0183  <S**2>=0.000
      72 -> 76         0.28926
      73 -> 77         0.32035
      75 -> 79         0.54515

 Excited State   8:      Singlet-A      4.6705 eV  265.46 nm  f=0.0307  <S**2>=0.000
      71 -> 76         0.62174
      74 -> 77        -0.24863
      75 -> 78        -0.17008

 Excited State   9:      Singlet-A      4.7467 eV  261.20 nm  f=0.0938  <S**2>=0.000
      72 -> 77         0.14154
      73 -> 76         0.17251
      74 -> 77        -0.38967
      74 -> 79        -0.27460
      75 -> 78         0.44206

 Excited State  10:      Singlet-A      4.8703 eV  254.57 nm  f=0.0001  <S**2>=0.000
      72 -> 78        -0.11400
      73 -> 77         0.36887
      74 -> 78         0.53657
      75 -> 79        -0.20049

 Excited State  11:      Singlet-A      4.9926 eV  248.34 nm  f=0.0095  <S**2>=0.000
      72 -> 77         0.49071
      74 -> 77        -0.15263
      74 -> 79         0.45644

 Excited State  12:      Singlet-A      5.2490 eV  236.21 nm  f=0.1449  <S**2>=0.000
      72 -> 77         0.10776
      74 -> 79        -0.17177
      75 -> 80         0.65641

 Excited State  13:      Singlet-A      5.4149 eV  228.97 nm  f=0.0758  <S**2>=0.000
      71 -> 77         0.21733
      72 -> 76        -0.10824
      72 -> 78        -0.12758
      73 -> 77         0.41590
      73 -> 79         0.29501
      74 -> 78        -0.30324
      75 -> 79        -0.18417
      75 -> 81         0.11440

 Excited State  14:      Singlet-A      5.4733 eV  226.52 nm  f=0.0544  <S**2>=0.000
      72 -> 77         0.12889
      72 -> 79        -0.29797
      73 -> 78         0.60355

 Excited State  15:      Singlet-A      5.4898 eV  225.84 nm  f=0.0032  <S**2>=0.000
      71 -> 77         0.40224
      71 -> 79         0.13520
      72 -> 78         0.47608
      74 -> 78         0.16429
      74 -> 80        -0.10707
      75 -> 81         0.16085

 Excited State  16:      Singlet-A      5.5515 eV  223.34 nm  f=0.0251  <S**2>=0.000
      70 -> 76         0.22930
      71 -> 79         0.12869
      72 -> 78        -0.16804
      73 -> 77        -0.12092
      73 -> 79         0.52254
      74 -> 78         0.19082
      74 -> 80        -0.20294
      75 -> 81        -0.13128

 The electronic state is 1-A.
 Alpha  occ. eigenvalues --  -19.17202 -19.17202 -10.25059 -10.25059 -10.20049
 Alpha  occ. eigenvalues --  -10.20025 -10.19715 -10.19714 -10.19353 -10.19353
 Alpha  occ. eigenvalues --  -10.19248 -10.19248 -10.18925 -10.18925 -10.18191
 Alpha  occ. eigenvalues --  -10.18190 -10.17979 -10.17979 -10.17928 -10.17928
 Alpha  occ. eigenvalues --  -10.17560 -10.17559  -1.05537  -1.05456  -0.86819
 Alpha  occ. eigenvalues --   -0.86003  -0.81376  -0.80914  -0.78725  -0.75020
 Alpha  occ. eigenvalues --   -0.72896  -0.72847  -0.71828  -0.70625  -0.63135
 Alpha  occ. eigenvalues --   -0.62696  -0.60880  -0.60805  -0.59558  -0.56718
 Alpha  occ. eigenvalues --   -0.54821  -0.54401  -0.51838  -0.50172  -0.48976
 Alpha  occ. eigenvalues --   -0.48681  -0.46354  -0.46295  -0.44695  -0.43650
 Alpha  occ. eigenvalues --   -0.42747  -0.42211  -0.41813  -0.41397  -0.40935
 Alpha  occ. eigenvalues --   -0.39719  -0.39014  -0.38706  -0.38525  -0.36847
 Alpha  occ. eigenvalues --   -0.36135  -0.35902  -0.35098  -0.33550  -0.33335
 Alpha  occ. eigenvalues --   -0.32939  -0.31817  -0.30516  -0.29562  -0.28588
 Alpha  occ. eigenvalues --   -0.24757  -0.22586  -0.22224  -0.20844  -0.18860
 Alpha virt. eigenvalues --   -0.05140  -0.01801  -0.00199   0.00060   0.02911
 Alpha virt. eigenvalues --    0.04936   0.06920   0.07080   0.09286   0.09291
 Alpha virt. eigenvalues --    0.10885   0.11210   0.12102   0.12286   0.14265

 Mulliken charges:
               1
     1  C   -0.140975
     2  C   -0.147722
     3  C    0.072721
     4  C    0.108824
     5  C   -0.183614
     6  C   -0.137951
     7  H    0.121374
     8  H    0.131906
     9  C   -0.009929
    10  C   -0.172536
    11  H    0.123978
    12  H    0.124786
    13  C   -0.212598
    14  C    0.280160
    15  H    0.134102
    16  H    0.120087
    17  C   -0.137952
    18  C   -0.183602
    19  C    0.108784
    20  C    0.072744
    21  C   -0.147689
    22  C   -0.140991
    23  H    0.134100
    24  H    0.124783
    25  H    0.123974
    26  C   -0.172476
    27  C   -0.009958
    28  H    0.131899
    29  H    0.121369
    30  C    0.280234
    31  C   -0.212682
    32  H    0.120087
    33  O   -0.617591
    34  H    0.404959
    35  O   -0.617569
    36  H    0.404965
 Sum of Mulliken charges =  -0.00000

 Dipole moment (field-independent basis, Debye):
    X=              0.0008    Y=             -0.0004    Z=              0.6453  Tot=              0.6453
 Quadrupole moment (field-independent basis, Debye-Ang):
   XX=           -116.4550   YY=            -96.7856   ZZ=           -130.1954
   XY=              5.3697   XZ=             -0.0018   YZ=             -0.0010

 1\1\GINC-CCC167\SP\RB3LYP TD-FC\6-31G(d)\C20H14O2\ROOT\20-Feb-2025\0\\
 # td=(nstat=16) b3lyp/6-31g(d)\\binol | No.10\\0,1\C,0,-3.131365,-1.82
 4923,-1.195616\C,0,-1.946151,-1.344387,-0.678689\C,0,-1.860367,-0.1169
 28,0.038926\C,0,-3.054013,0.685309,-0.01313\C,0,-4.279983,0.146951,-0.
 487542\C,0,-4.336034,-1.107707,-1.044792\H,0,-3.126782,-2.761294,-1.74
 8099\H,0,-1.04642,-1.900618,-0.888705\C,0,-0.635575,0.406493,0.680007\
 C,0,-2.969685,2.073958,0.254902\H,0,-5.164675,0.778709,-0.450045\H,0,-
 5.271824,-1.510398,-1.422199\C,0,-1.751545,2.628406,0.515895\C,0,-0.60

 Normal termination of Gaussian 16 at Thu Feb 20 09:32:54 2025.
