 Gaussian 16, Revision C.02,
 Gaussian 16:  ES64L-G16RevC.02  7-Dec-2021

 ------------------------------
 # td=(nstat=16) b3lyp/6-31g(d)
 ------------------------------

 -------------
 binol | No.11
 -------------
 Symbolic Z-matrix:
 Charge =  0 Multiplicity = 1

                         Standard orientation:
 ---------------------------------------------------------------------
 Center     Atomic      Atomic             Coordinates (Angstroms)
 Number     Number       Type             X           Y           Z
 ---------------------------------------------------------------------
      1          6           0       -3.196609    1.789020    1.151276
      2          6           0       -1.989932    1.300175    0.691601
      3          6           0       -1.880284    0.098046   -0.062266
      4          6           0       -3.080964   -0.693822   -0.070993
      5          6           0       -4.327745   -0.146330    0.331496
      6          6           0       -4.401321    1.101439    0.903961
      7          1           0       -3.207828    2.705712    1.735712
      8          1           0       -1.095257    1.826437    0.983048
      9          6           0       -0.622861   -0.428406   -0.661463
     10          6           0       -2.981595   -2.091323   -0.285999
     11          1           0       -5.214264   -0.769926    0.239833
     12          1           0       -5.352626    1.511944    1.230813
     13          6           0       -1.745448   -2.646093   -0.422135
     14          6           0       -0.586758   -1.830778   -0.558637
     15          1           0       -3.876152   -2.708133   -0.262489
     16          1           0       -1.625230   -3.724874   -0.507868
     17          6           0        4.401218   -1.101568    0.904001
     18          6           0        4.327727    0.146198    0.331513
     19          6           0        3.080983    0.693760   -0.070992
     20          6           0        1.880258   -0.098028   -0.062243
     21          6           0        1.989816   -1.300137    0.691659
     22          6           0        3.196458   -1.789051    1.151356
     23          1           0        3.876281    2.708031   -0.262528
     24          1           0        5.352496   -1.512131    1.230856
     25          1           0        5.214289    0.769730    0.239831
     26          6           0        2.981692    2.091269   -0.286014
     27          6           0        0.622853    0.428486   -0.661465
     28          1           0        1.095092   -1.826323    0.983120
     29          1           0        3.207613   -2.705727    1.735819
     30          6           0        0.586820    1.830849   -0.558547
     31          6           0        1.745565    2.646099   -0.422079
     32          1           0        1.625391    3.724891   -0.507746
     33          8           0        0.522937   -2.485034   -1.053822
     34          1           0        0.338819   -3.435749   -1.091422
     35          8           0       -0.522864    2.485212   -1.053613
     36          1           0       -0.338455    3.435851   -1.091676
 ---------------------------------------------------------------------

 SCF Done:  E(RB3LYP) =  -920.935855057     A.U. after   14 cycles

 Excitation energies and oscillator strengths:

 Excited State   1:      Singlet-A      3.2586 eV  380.48 nm  f=0.2771  <S**2>=0.000
      75 -> 76         0.70056
 This state for optimization and/or second-order correction.
 Total Energy, E(TD-HF/TD-DFT) =  -920.816104054
 Copying the excited state density for this state as the 1-particle RhoCI density.

 Excited State   2:      Singlet-A      3.5796 eV  346.36 nm  f=0.0007  <S**2>=0.000
      74 -> 76         0.67811
      75 -> 77        -0.11061
      75 -> 79        -0.11845

 Excited State   3:      Singlet-A      3.8748 eV  319.97 nm  f=0.0337  <S**2>=0.000
      73 -> 76         0.59823
      75 -> 78         0.34672

 Excited State   4:      Singlet-A      3.9580 eV  313.25 nm  f=0.0016  <S**2>=0.000
      72 -> 76         0.54435
      75 -> 77         0.34416
      75 -> 79        -0.25518

 Excited State   5:      Singlet-A      4.1702 eV  297.31 nm  f=0.0011  <S**2>=0.000
      72 -> 76        -0.30482
      74 -> 76         0.13685
      75 -> 77         0.58640
      75 -> 79         0.11397

 Excited State   6:      Singlet-A      4.3883 eV  282.53 nm  f=0.0279  <S**2>=0.000
      71 -> 76         0.46392
      72 -> 77        -0.15656
      73 -> 76        -0.23552
      74 -> 77        -0.34538
      75 -> 78         0.26120

 Excited State   7:      Singlet-A      4.5201 eV  274.30 nm  f=0.0162  <S**2>=0.000
      72 -> 76         0.27524
      73 -> 77         0.29027
      75 -> 79         0.56826

 Excited State   8:      Singlet-A      4.5693 eV  271.34 nm  f=0.0698  <S**2>=0.000
      71 -> 76         0.50917
      72 -> 77         0.12019
      73 -> 76         0.17206
      74 -> 77         0.25592
      75 -> 78        -0.34200

 Excited State   9:      Singlet-A      4.7345 eV  261.87 nm  f=0.0627  <S**2>=0.000
      72 -> 79         0.11810
      73 -> 76        -0.11407
      73 -> 78        -0.11658
      74 -> 77         0.48784
      74 -> 79        -0.27515
      75 -> 78         0.35187

 Excited State  10:      Singlet-A      4.8409 eV  256.12 nm  f=0.0000  <S**2>=0.000
      72 -> 78        -0.13084
      73 -> 77         0.36228
      73 -> 79         0.11772
      74 -> 78         0.53943
      75 -> 79        -0.18016

 Excited State  11:      Singlet-A      4.9763 eV  249.15 nm  f=0.0132  <S**2>=0.000
      72 -> 77         0.47430
      74 -> 77        -0.19669
      74 -> 79        -0.46058

 Excited State  12:      Singlet-A      5.2088 eV  238.03 nm  f=0.1414  <S**2>=0.000
      72 -> 77        -0.12922
      74 -> 79        -0.16704
      75 -> 80         0.65300

 Excited State  13:      Singlet-A      5.3225 eV  232.94 nm  f=0.0426  <S**2>=0.000
      71 -> 77        -0.16261
      72 -> 78        -0.15068
      73 -> 77         0.42142
      73 -> 79        -0.37923
      74 -> 78        -0.26621
      75 -> 79        -0.16334

 Excited State  14:      Singlet-A      5.3689 eV  230.93 nm  f=0.0441  <S**2>=0.000
      72 -> 77         0.12023
      72 -> 79         0.27908
      73 -> 78         0.61661

 Excited State  15:      Singlet-A      5.4113 eV  229.12 nm  f=0.0004  <S**2>=0.000
      70 -> 76         0.10177
      71 -> 77        -0.34781
      71 -> 79         0.14148
      72 -> 78         0.51511
      74 -> 78         0.16175
      74 -> 80        -0.11056

 Excited State  16:      Singlet-A      5.4730 eV  226.54 nm  f=0.0434  <S**2>=0.000
      70 -> 76        -0.13433
      71 -> 79        -0.13779
      72 -> 78         0.19521
      73 -> 77         0.23194
      73 -> 79         0.48262
      74 -> 78        -0.26400
      74 -> 80         0.12990
      75 -> 79        -0.10632
      75 -> 81         0.10688

 The electronic state is 1-A.
 Alpha  occ. eigenvalues --  -19.17137 -19.17137 -10.25217 -10.25217 -10.20288
 Alpha  occ. eigenvalues --  -10.20264 -10.19681 -10.19681 -10.19385 -10.19385
 Alpha  occ. eigenvalues --  -10.19283 -10.19283 -10.18903 -10.18903 -10.18149
 Alpha  occ. eigenvalues --  -10.18148 -10.17929 -10.17929 -10.17865 -10.17864
 Alpha  occ. eigenvalues --  -10.17532 -10.17531  -1.05472  -1.05399  -0.86785
 Alpha  occ. eigenvalues --   -0.86025  -0.81330  -0.80863  -0.78689  -0.74996
 Alpha  occ. eigenvalues --   -0.72812  -0.72749  -0.71781  -0.70643  -0.63122
 Alpha  occ. eigenvalues --   -0.62646  -0.60797  -0.60724  -0.59517  -0.56678
 Alpha  occ. eigenvalues --   -0.54884  -0.54370  -0.51825  -0.50151  -0.48931
 Alpha  occ. eigenvalues --   -0.48586  -0.46359  -0.46248  -0.44752  -0.43718
 Alpha  occ. eigenvalues --   -0.42589  -0.42384  -0.41793  -0.41358  -0.40762
 Alpha  occ. eigenvalues --   -0.39804  -0.38939  -0.38577  -0.38491  -0.36870
 Alpha  occ. eigenvalues --   -0.36153  -0.35909  -0.35085  -0.33335  -0.33061
 Alpha  occ. eigenvalues --   -0.32893  -0.31992  -0.30459  -0.29371  -0.28423
 Alpha  occ. eigenvalues --   -0.24505  -0.22415  -0.22038  -0.20937  -0.18793
 Alpha virt. eigenvalues --   -0.05369  -0.01683  -0.00392  -0.00151   0.02853
 Alpha virt. eigenvalues --    0.04938   0.06908   0.07141   0.08955   0.09075
 Alpha virt. eigenvalues --    0.10960   0.11267   0.12186   0.12425   0.14196

 Mulliken charges:
               1
     1  C   -0.139883
     2  C   -0.143163
     3  C    0.058528
     4  C    0.103525
     5  C   -0.182875
     6  C   -0.137160
     7  H    0.120982
     8  H    0.133368
     9  C   -0.009523
    10  C   -0.165125
    11  H    0.123920
    12  H    0.124616
    13  C   -0.214106
    14  C    0.282982
    15  H    0.134578
    16  H    0.120127
    17  C   -0.137159
    18  C   -0.182874
    19  C    0.103522
    20  C    0.058527
    21  C   -0.143167
    22  C   -0.139884
    23  H    0.134578
    24  H    0.124616
    25  H    0.123921
    26  C   -0.165119
    27  C   -0.009522
    28  H    0.133359
    29  H    0.120980
    30  C    0.283012
    31  C   -0.214125
    32  H    0.120130
    33  O   -0.615518
    34  H    0.404732
    35  O   -0.615534
    36  H    0.404735
 Sum of Mulliken charges =  -0.00000

 Dipole moment (field-independent basis, Debye):
    X=              0.0004    Y=             -0.0001    Z=              0.7583  Tot=              0.7583
 Quadrupole moment (field-independent basis, Debye-Ang):
   XX=           -116.3402   YY=            -96.8769   ZZ=           -130.3839
   XY=              5.4816   XZ=             -0.0004   YZ=             -0.0022

 1\1\GINC-CCC167\SP\RB3LYP TD-FC\6-31G(d)\C20H14O2\ROOT\20-Feb-2025\0\\
 # td=(nstat=16) b3lyp/6-31g(d)\\binol | No.11\\0,1\C,0,-3.196609,-1.78
 902,-1.151276\C,0,-1.989932,-1.300175,-0.691601\C,0,-1.880284,-0.09804
 6,0.062266\C,0,-3.080964,0.693822,0.070993\C,0,-4.327745,0.14633,-0.33
 1496\C,0,-4.401321,-1.101439,-0.903961\H,0,-3.207828,-2.705712,-1.7357
 12\H,0,-1.095257,-1.826437,-0.983048\C,0,-0.622861,0.428406,0.661463\C
 ,0,-2.981595,2.091323,0.285999\H,0,-5.214264,0.769926,-0.239833\H,0,-5
 .352626,-1.511944,-1.230813\C,0,-1.745448,2.646093,0.422135\C,0,-0.586

 Normal termination of Gaussian 16 at Thu Feb 20 09:32:42 2025.
