 Gaussian 16, Revision C.02,
 Gaussian 16:  ES64L-G16RevC.02  7-Dec-2021

 ------------------------------
 # td=(nstat=16) b3lyp/6-31g(d)
 ------------------------------

 ------------
 binol | No.7
 ------------
 Symbolic Z-matrix:
 Charge =  0 Multiplicity = 1

                         Standard orientation:
 ---------------------------------------------------------------------
 Center     Atomic      Atomic             Coordinates (Angstroms)
 Number     Number       Type             X           Y           Z
 ---------------------------------------------------------------------
      1          6           0        2.989817   -1.884461    1.351029
      2          6           0        1.850348   -1.409049    0.740283
      3          6           0        1.824208   -0.156080    0.063267
      4          6           0        3.023675    0.632844    0.141163
      5          6           0        4.194029    0.103042    0.747942
      6          6           0        4.190980   -1.140656    1.332028
      7          1           0        2.958524   -2.841583    1.865649
      8          1           0        0.943161   -1.992364    0.809428
      9          6           0        0.652829    0.367927   -0.614857
     10          6           0        3.007002    1.972776   -0.319494
     11          1           0        5.089759    0.720113    0.762777
     12          1           0        5.087792   -1.534830    1.801943
     13          6           0        1.852213    2.516707   -0.813046
     14          6           0        0.681181    1.728510   -0.928728
     15          1           0        3.912994    2.569668   -0.251390
     16          1           0        1.823263    3.554529   -1.141689
     17          6           0       -4.190998    1.140645    1.332013
     18          6           0       -4.194034   -0.103047    0.747920
     19          6           0       -3.023667   -0.632846    0.141163
     20          6           0       -1.824199    0.156079    0.063283
     21          6           0       -1.850360    1.409051    0.740298
     22          6           0       -2.989839    1.884455    1.351030
     23          1           0       -3.912985   -2.569665   -0.251409
     24          1           0       -5.087818    1.534811    1.801919
     25          1           0       -5.089763   -0.720120    0.762738
     26          6           0       -3.006990   -1.972776   -0.319496
     27          6           0       -0.652811   -0.367930   -0.614833
     28          1           0       -0.943179    1.992368    0.809469
     29          1           0       -2.958558    2.841574    1.865656
     30          6           0       -0.681165   -1.728513   -0.928703
     31          6           0       -1.852200   -2.516705   -0.813045
     32          1           0       -1.823255   -3.554518   -1.141714
     33          8           0       -0.420484    2.273967   -1.537510
     34          1           0       -0.236812    3.202976   -1.744157
     35          8           0        0.420481   -2.273948   -1.537530
     36          1           0        0.236793   -3.202948   -1.744199
 ---------------------------------------------------------------------

 SCF Done:  E(RB3LYP) =  -920.997499487     A.U. after   14 cycles

 Excitation energies and oscillator strengths:

 Excited State   1:      Singlet-A      3.4966 eV  354.58 nm  f=0.2042  <S**2>=0.000
      75 -> 76         0.69712
 This state for optimization and/or second-order correction.
 Total Energy, E(TD-HF/TD-DFT) =  -920.869000571
 Copying the excited state density for this state as the 1-particle RhoCI density.

 Excited State   2:      Singlet-A      3.7802 eV  327.99 nm  f=0.0017  <S**2>=0.000
      74 -> 76         0.64792
      75 -> 77        -0.25562

 Excited State   3:      Singlet-A      4.0742 eV  304.31 nm  f=0.0018  <S**2>=0.000
      72 -> 76         0.19790
      74 -> 76         0.19502
      75 -> 77         0.60945
      75 -> 79         0.15293

 Excited State   4:      Singlet-A      4.1895 eV  295.94 nm  f=0.0161  <S**2>=0.000
      73 -> 76         0.52340
      74 -> 77         0.20041
      74 -> 79         0.12309
      75 -> 78        -0.38960

 Excited State   5:      Singlet-A      4.3488 eV  285.10 nm  f=0.0009  <S**2>=0.000
      72 -> 76         0.54134
      74 -> 76        -0.16110
      74 -> 78        -0.16086
      75 -> 77        -0.21108
      75 -> 79         0.31603

 Excited State   6:      Singlet-A      4.4673 eV  277.54 nm  f=0.0473  <S**2>=0.000
      73 -> 76        -0.30539
      74 -> 77         0.61170

 Excited State   7:      Singlet-A      4.7404 eV  261.55 nm  f=0.0192  <S**2>=0.000
      72 -> 76        -0.33426
      73 -> 77         0.39824
      75 -> 79         0.46385

 Excited State   8:      Singlet-A      4.8054 eV  258.01 nm  f=0.0886  <S**2>=0.000
      72 -> 77        -0.27211
      73 -> 76         0.26846
      74 -> 77         0.21500
      74 -> 79         0.22685
      75 -> 78         0.48476

 Excited State   9:      Singlet-A      4.9207 eV  251.97 nm  f=0.0012  <S**2>=0.000
      73 -> 77        -0.35615
      74 -> 78         0.52796
      75 -> 79         0.27265

 Excited State  10:      Singlet-A      4.9787 eV  249.03 nm  f=0.0058  <S**2>=0.000
      71 -> 76         0.47743
      72 -> 77         0.28587
      74 -> 77        -0.10490
      74 -> 79         0.36576
      75 -> 78         0.14636
      75 -> 80         0.10754

 Excited State  11:      Singlet-A      5.0384 eV  246.08 nm  f=0.0020  <S**2>=0.000
      71 -> 76         0.44883
      72 -> 77        -0.40289
      74 -> 79        -0.29450
      75 -> 80         0.18883

 Excited State  12:      Singlet-A      5.3494 eV  231.77 nm  f=0.1509  <S**2>=0.000
      71 -> 76        -0.20527
      74 -> 79         0.16030
      75 -> 80         0.63872

 Excited State  13:      Singlet-A      5.5524 eV  223.30 nm  f=0.1045  <S**2>=0.000
      70 -> 76        -0.21044
      71 -> 77         0.33981
      72 -> 76        -0.12203
      73 -> 77        -0.30727
      73 -> 79        -0.13465
      74 -> 78        -0.26610
      74 -> 80         0.19098
      75 -> 79         0.15951
      75 -> 81         0.24409

 Excited State  14:      Singlet-A      5.6584 eV  219.12 nm  f=0.0428  <S**2>=0.000
      71 -> 77         0.35761
      71 -> 79         0.10201
      72 -> 78         0.45051
      73 -> 77         0.10602
      74 -> 78         0.21399
      74 -> 80        -0.11983
      75 -> 79        -0.12383
      75 -> 81         0.21783

 Excited State  15:      Singlet-A      5.6817 eV  218.22 nm  f=0.0811  <S**2>=0.000
      72 -> 77        -0.12473
      72 -> 79         0.36601
      73 -> 78         0.56173
      74 -> 79         0.11255

 Excited State  16:      Singlet-A      5.7219 eV  216.68 nm  f=0.0025  <S**2>=0.000
      70 -> 76        -0.23752
      71 -> 79        -0.10738
      73 -> 79         0.49705
      74 -> 80         0.38033

 The electronic state is 1-A.
 Alpha  occ. eigenvalues --  -19.17436 -19.17436 -10.24746 -10.24746 -10.19516
 Alpha  occ. eigenvalues --  -10.19516 -10.19371 -10.19344 -10.19218 -10.19218
 Alpha  occ. eigenvalues --  -10.19143 -10.19143 -10.18868 -10.18868 -10.18218
 Alpha  occ. eigenvalues --  -10.18218 -10.18053 -10.18053 -10.17961 -10.17961
 Alpha  occ. eigenvalues --  -10.17584 -10.17584  -1.05708  -1.05608  -0.86884
 Alpha  occ. eigenvalues --   -0.85929  -0.81387  -0.80899  -0.78696  -0.75046
 Alpha  occ. eigenvalues --   -0.72967  -0.72934  -0.71858  -0.70490  -0.63057
 Alpha  occ. eigenvalues --   -0.62658  -0.60995  -0.60990  -0.59655  -0.56705
 Alpha  occ. eigenvalues --   -0.54722  -0.54469  -0.51705  -0.50184  -0.48891
 Alpha  occ. eigenvalues --   -0.48869  -0.46351  -0.46323  -0.44438  -0.43349
 Alpha  occ. eigenvalues --   -0.42647  -0.42112  -0.41646  -0.41444  -0.41414
 Alpha  occ. eigenvalues --   -0.39701  -0.39182  -0.38987  -0.38680  -0.36710
 Alpha  occ. eigenvalues --   -0.36105  -0.35805  -0.35083  -0.34003  -0.33753
 Alpha  occ. eigenvalues --   -0.33071  -0.31422  -0.30437  -0.29834  -0.28467
 Alpha  occ. eigenvalues --   -0.25364  -0.22766  -0.22498  -0.20617  -0.18949
 Alpha virt. eigenvalues --   -0.04411  -0.02028   0.00239   0.00541   0.03087
 Alpha virt. eigenvalues --    0.05014   0.06967   0.07033   0.09904   0.10129
 Alpha virt. eigenvalues --    0.10793   0.11414   0.11943   0.12106   0.14375

 Mulliken charges:
               1
     1  C   -0.141349
     2  C   -0.163764
     3  C    0.103875
     4  C    0.128315
     5  C   -0.190476
     6  C   -0.137797
     7  H    0.122767
     8  H    0.133474
     9  C   -0.014979
    10  C   -0.191440
    11  H    0.124029
    12  H    0.124599
    13  C   -0.204180
    14  C    0.279355
    15  H    0.132509
    16  H    0.119309
    17  C   -0.137797
    18  C   -0.190474
    19  C    0.128312
    20  C    0.103879
    21  C   -0.163768
    22  C   -0.141347
    23  H    0.132509
    24  H    0.124599
    25  H    0.124029
    26  C   -0.191438
    27  C   -0.014984
    28  H    0.133472
    29  H    0.122767
    30  C    0.279352
    31  C   -0.204185
    32  H    0.119309
    33  O   -0.630404
    34  H    0.406159
    35  O   -0.630397
    36  H    0.406159
 Sum of Mulliken charges =  -0.00000

 Dipole moment (field-independent basis, Debye):
    X=             -0.0000    Y=              0.0000    Z=             -0.1526  Tot=              0.1526
 Quadrupole moment (field-independent basis, Debye-Ang):
   XX=           -116.7742   YY=            -98.4362   ZZ=           -127.2892
   XY=              5.8021   XZ=              0.0001   YZ=              0.0002

 1\1\GINC-CCC139\SP\RB3LYP TD-FC\6-31G(d)\C20H14O2\ROOT\20-Feb-2025\0\\
 # td=(nstat=16) b3lyp/6-31g(d)\\binol | No.7\\0,1\C,0,-2.989817,-1.884
 461,-1.351029\C,0,-1.850348,-1.409049,-0.740283\C,0,-1.824208,-0.15608
 ,-0.063267\C,0,-3.023675,0.632844,-0.141163\C,0,-4.194029,0.103042,-0.
 747942\C,0,-4.19098,-1.140656,-1.332028\H,0,-2.958524,-2.841583,-1.865
 649\H,0,-0.943161,-1.992364,-0.809428\C,0,-0.652829,0.367927,0.614857\
 C,0,-3.007002,1.972776,0.319494\H,0,-5.089759,0.720113,-0.762777\H,0,-
 5.087792,-1.53483,-1.801943\C,0,-1.852213,2.516707,0.813046\C,0,-0.681

 Normal termination of Gaussian 16 at Thu Feb 20 09:32:19 2025.
