 Gaussian 16, Revision C.02,
 Gaussian 16:  ES64L-G16RevC.02  7-Dec-2021

 ------------------------------
 # td=(nstat=16) b3lyp/6-31g(d)
 ------------------------------

 -------------
 binol | No.13
 -------------
 Symbolic Z-matrix:
 Charge =  0 Multiplicity = 1

                         Standard orientation:
 ---------------------------------------------------------------------
 Center     Atomic      Atomic             Coordinates (Angstroms)
 Number     Number       Type             X           Y           Z
 ---------------------------------------------------------------------
      1          6           0        2.989607    1.884271    1.351387
      2          6           0        1.850146    1.408861    0.740724
      3          6           0        1.824096    0.156038    0.063298
      4          6           0        3.023643   -0.632746    0.140885
      5          6           0        4.194080   -0.102880    0.747621
      6          6           0        4.190933    1.140621    1.332009
      7          1           0        2.958281    2.841215    1.866332
      8          1           0        0.942809    1.991929    0.810151
      9          6           0        0.652722   -0.367833   -0.614734
     10          6           0        3.007066   -1.972587   -0.319893
     11          1           0        5.089866   -0.719877    0.762068
     12          1           0        5.087729    1.534904    1.801861
     13          6           0        1.852215   -2.516554   -0.813343
     14          6           0        0.681184   -1.728417   -0.928703
     15          1           0        3.913157   -2.569353   -0.252051
     16          1           0        1.823300   -3.554282   -1.142272
     17          6           0       -4.190645   -1.140835    1.332246
     18          6           0       -4.193968    0.102742    0.747966
     19          6           0       -3.023710    0.632693    0.141046
     20          6           0       -1.824088   -0.155969    0.063373
     21          6           0       -1.849948   -1.408871    0.740601
     22          6           0       -2.989299   -1.884433    1.351368
     23          1           0       -3.913387    2.569197   -0.252236
     24          1           0       -5.087353   -1.535154    1.802235
     25          1           0       -5.089798    0.719670    0.762698
     26          6           0       -3.007271    1.972456   -0.319989
     27          6           0       -0.652861    0.367896   -0.614902
     28          1           0       -0.942532   -1.991861    0.809800
     29          1           0       -2.957868   -2.841481    1.866115
     30          6           0       -0.681302    1.728540   -0.928680
     31          6           0       -1.852462    2.516487   -0.813436
     32          1           0       -1.823675    3.554237   -1.142322
     33          8           0       -0.420539   -2.273544   -1.537853
     34          1           0       -0.237772   -3.203042   -1.743127
     35          8           0        0.420580    2.274104   -1.536783
     36          1           0        0.236080    3.202545   -1.745224
 ---------------------------------------------------------------------

 SCF Done:  E(RB3LYP) =  -920.997499235     A.U. after   14 cycles

 Excitation energies and oscillator strengths:

 Excited State   1:      Singlet-A      3.4965 eV  354.59 nm  f=0.2042  <S**2>=0.000
      75 -> 76         0.69712
 This state for optimization and/or second-order correction.
 Total Energy, E(TD-HF/TD-DFT) =  -920.869004776
 Copying the excited state density for this state as the 1-particle RhoCI density.

 Excited State   2:      Singlet-A      3.7800 eV  328.00 nm  f=0.0017  <S**2>=0.000
      74 -> 76         0.64797
      75 -> 77         0.25549

 Excited State   3:      Singlet-A      4.0743 eV  304.30 nm  f=0.0019  <S**2>=0.000
      72 -> 76        -0.19789
      74 -> 76        -0.19490
      75 -> 77         0.60950
      75 -> 79        -0.15292

 Excited State   4:      Singlet-A      4.1894 eV  295.95 nm  f=0.0162  <S**2>=0.000
      73 -> 76         0.52357
      74 -> 77        -0.20015
      74 -> 79         0.12307
      75 -> 78        -0.38953

 Excited State   5:      Singlet-A      4.3487 eV  285.11 nm  f=0.0009  <S**2>=0.000
      72 -> 76         0.54145
      74 -> 76        -0.16105
      74 -> 78        -0.16082
      75 -> 77         0.21109
      75 -> 79         0.31590

 Excited State   6:      Singlet-A      4.4673 eV  277.54 nm  f=0.0472  <S**2>=0.000
      73 -> 76         0.30525
      74 -> 77         0.61172

 Excited State   7:      Singlet-A      4.7404 eV  261.55 nm  f=0.0192  <S**2>=0.000
      72 -> 76        -0.33413
      73 -> 77        -0.39839
      75 -> 79         0.46383

 Excited State   8:      Singlet-A      4.8055 eV  258.00 nm  f=0.0887  <S**2>=0.000
      72 -> 77         0.27215
      73 -> 76         0.26834
      74 -> 77        -0.21517
      74 -> 79         0.22677
      75 -> 78         0.48474

 Excited State   9:      Singlet-A      4.9208 eV  251.96 nm  f=0.0012  <S**2>=0.000
      73 -> 77         0.35603
      74 -> 78         0.52799
      75 -> 79         0.27280

 Excited State  10:      Singlet-A      4.9787 eV  249.03 nm  f=0.0059  <S**2>=0.000
      71 -> 76         0.47830
      72 -> 77        -0.28507
      74 -> 77         0.10483
      74 -> 79         0.36518
      75 -> 78         0.14640
      75 -> 80         0.10788

 Excited State  11:      Singlet-A      5.0383 eV  246.08 nm  f=0.0020  <S**2>=0.000
      71 -> 76         0.44789
      72 -> 77         0.40342
      74 -> 79        -0.29523
      75 -> 80         0.18864

 Excited State  12:      Singlet-A      5.3492 eV  231.78 nm  f=0.1507  <S**2>=0.000
      71 -> 76        -0.20526
      74 -> 79         0.16028
      75 -> 80         0.63874

 Excited State  13:      Singlet-A      5.5524 eV  223.30 nm  f=0.1044  <S**2>=0.000
      70 -> 76         0.21064
      71 -> 77         0.33968
      72 -> 76         0.12197
      73 -> 77        -0.30717
      73 -> 79         0.13439
      74 -> 78         0.26615
      74 -> 80        -0.19117
      75 -> 79        -0.15950
      75 -> 81         0.24421

 Excited State  14:      Singlet-A      5.6584 eV  219.11 nm  f=0.0427  <S**2>=0.000
      71 -> 77        -0.35751
      71 -> 79         0.10197
      72 -> 78         0.45048
      73 -> 77        -0.10597
      74 -> 78         0.21394
      74 -> 80        -0.11995
      75 -> 79        -0.12383
      75 -> 81        -0.21804

 Excited State  15:      Singlet-A      5.6817 eV  218.22 nm  f=0.0815  <S**2>=0.000
      72 -> 77         0.12503
      72 -> 79         0.36589
      73 -> 78         0.56160
      74 -> 79         0.11288

 Excited State  16:      Singlet-A      5.7220 eV  216.68 nm  f=0.0026  <S**2>=0.000
      70 -> 76        -0.23747
      71 -> 79        -0.10732
      73 -> 79         0.49682
      74 -> 80         0.38064

 The electronic state is 1-A.
 Alpha  occ. eigenvalues --  -19.17437 -19.17434 -10.24746 -10.24745 -10.19515
 Alpha  occ. eigenvalues --  -10.19514 -10.19369 -10.19343 -10.19218 -10.19218
 Alpha  occ. eigenvalues --  -10.19143 -10.19143 -10.18868 -10.18867 -10.18218
 Alpha  occ. eigenvalues --  -10.18217 -10.18054 -10.18052 -10.17962 -10.17961
 Alpha  occ. eigenvalues --  -10.17584 -10.17583  -1.05708  -1.05608  -0.86885
 Alpha  occ. eigenvalues --   -0.85930  -0.81387  -0.80899  -0.78698  -0.75046
 Alpha  occ. eigenvalues --   -0.72967  -0.72934  -0.71857  -0.70490  -0.63057
 Alpha  occ. eigenvalues --   -0.62659  -0.60995  -0.60990  -0.59655  -0.56705
 Alpha  occ. eigenvalues --   -0.54721  -0.54469  -0.51705  -0.50183  -0.48891
 Alpha  occ. eigenvalues --   -0.48869  -0.46351  -0.46323  -0.44438  -0.43348
 Alpha  occ. eigenvalues --   -0.42647  -0.42113  -0.41646  -0.41444  -0.41413
 Alpha  occ. eigenvalues --   -0.39702  -0.39182  -0.38987  -0.38681  -0.36710
 Alpha  occ. eigenvalues --   -0.36105  -0.35805  -0.35084  -0.34003  -0.33752
 Alpha  occ. eigenvalues --   -0.33071  -0.31423  -0.30437  -0.29834  -0.28467
 Alpha  occ. eigenvalues --   -0.25364  -0.22766  -0.22498  -0.20617  -0.18948
 Alpha virt. eigenvalues --   -0.04411  -0.02027   0.00240   0.00542   0.03086
 Alpha virt. eigenvalues --    0.05014   0.06968   0.07033   0.09905   0.10130
 Alpha virt. eigenvalues --    0.10793   0.11414   0.11944   0.12106   0.14376

 Mulliken charges:
               1
     1  C   -0.141363
     2  C   -0.163720
     3  C    0.103834
     4  C    0.128299
     5  C   -0.190441
     6  C   -0.137803
     7  H    0.122772
     8  H    0.133508
     9  C   -0.015041
    10  C   -0.191450
    11  H    0.124024
    12  H    0.124598
    13  C   -0.204147
    14  C    0.279298
    15  H    0.132509
    16  H    0.119310
    17  C   -0.137807
    18  C   -0.190448
    19  C    0.128344
    20  C    0.103861
    21  C   -0.163736
    22  C   -0.141371
    23  H    0.132508
    24  H    0.124598
    25  H    0.124027
    26  C   -0.191460
    27  C   -0.014950
    28  H    0.133453
    29  H    0.122763
    30  C    0.279399
    31  C   -0.204217
    32  H    0.119312
    33  O   -0.630378
    34  H    0.406138
    35  O   -0.630386
    36  H    0.406162
 Sum of Mulliken charges =  -0.00000

 Dipole moment (field-independent basis, Debye):
    X=             -0.0020    Y=             -0.0005    Z=             -0.1539  Tot=              0.1539
 Quadrupole moment (field-independent basis, Debye-Ang):
   XX=           -116.7743   YY=            -98.4419   ZZ=           -127.2843
   XY=             -5.8021   XZ=              0.0023   YZ=             -0.0144

 1\1\GINC-CCC175\SP\RB3LYP TD-FC\6-31G(d)\C20H14O2\ROOT\20-Feb-2025\0\\
 # td=(nstat=16) b3lyp/6-31g(d)\\binol | No.13\\0,1\C,0,-2.989607,-1.88
 4271,1.351387\C,0,-1.850146,-1.408861,0.740724\C,0,-1.824096,-0.156038
 ,0.063298\C,0,-3.023643,0.632746,0.140885\C,0,-4.19408,0.10288,0.74762
 1\C,0,-4.190933,-1.140621,1.332009\H,0,-2.958281,-2.841215,1.866332\H,
 0,-0.942809,-1.991929,0.810151\C,0,-0.652722,0.367833,-0.614734\C,0,-3
 .007066,1.972587,-0.319893\H,0,-5.089866,0.719876,0.762068\H,0,-5.0877
 29,-1.534905,1.801861\C,0,-1.852215,2.516554,-0.813343\C,0,-0.681184,1

 Normal termination of Gaussian 16 at Thu Feb 20 09:35:11 2025.
