 Gaussian 16, Revision C.02,
 Gaussian 16:  ES64L-G16RevC.02  7-Dec-2021

 ------------------------------
 # td=(nstat=16) b3lyp/6-31g(d)
 ------------------------------

 -------------
 binol | No.12
 -------------
 Symbolic Z-matrix:
 Charge =  0 Multiplicity = 1

                         Standard orientation:
 ---------------------------------------------------------------------
 Center     Atomic      Atomic             Coordinates (Angstroms)
 Number     Number       Type             X           Y           Z
 ---------------------------------------------------------------------
      1          6           0        3.277754   -1.745491    1.102845
      2          6           0        2.047525   -1.244274    0.719875
      3          6           0        1.904397   -0.077404   -0.077787
      4          6           0        3.110788    0.695286   -0.184288
      5          6           0        4.376187    0.134799    0.128193
      6          6           0        4.471377   -1.099232    0.729988
      7          1           0        3.315814   -2.636109    1.725131
      8          1           0        1.167441   -1.730216    1.108514
      9          6           0        0.605111    0.454911   -0.606447
     10          6           0        3.002287    2.099276   -0.356649
     11          1           0        5.262668    0.742033   -0.040990
     12          1           0        5.437808   -1.520189    0.993114
     13          6           0        1.760922    2.654323   -0.336367
     14          6           0        0.582062    1.849722   -0.406943
     15          1           0        3.896919    2.714800   -0.400710
     16          1           0        1.636690    3.735890   -0.359413
     17          6           0       -4.472528    1.097715    0.729536
     18          6           0       -4.376515   -0.136540    0.128339
     19          6           0       -3.110751   -0.696180   -0.184227
     20          6           0       -1.904935    0.077539   -0.078250
     21          6           0       -2.048787    1.244661    0.718951
     22          6           0       -3.279322    1.745110    1.101857
     23          1           0       -3.895368   -2.716309   -0.399955
     24          1           0       -5.439235    1.518084    0.992587
     25          1           0       -5.262567   -0.744518   -0.040423
     26          6           0       -3.001198   -2.100074   -0.356426
     27          6           0       -0.605513   -0.453802   -0.606809
     28          1           0       -1.168986    1.731562    1.107000
     29          1           0       -3.317977    2.636052    1.723638
     30          6           0       -0.581255   -1.848670   -0.407908
     31          6           0       -1.759388   -2.654196   -0.336834
     32          1           0       -1.634358   -3.735667   -0.360082
     33          8           0       -0.537712    2.557891   -0.800863
     34          1           0       -0.307258    3.496529   -0.871205
     35          8           0        0.538858   -2.555638   -0.802906
     36          1           0        0.309933   -3.494823   -0.870945
 ---------------------------------------------------------------------

 SCF Done:  E(RB3LYP) =  -920.914033562     A.U. after   15 cycles

 Excitation energies and oscillator strengths:

 Excited State   1:      Singlet-A      3.1896 eV  388.71 nm  f=0.3096  <S**2>=0.000
      75 -> 76         0.70141
 This state for optimization and/or second-order correction.
 Total Energy, E(TD-HF/TD-DFT) =  -920.796816943
 Copying the excited state density for this state as the 1-particle RhoCI density.

 Excited State   2:      Singlet-A      3.5581 eV  348.46 nm  f=0.0004  <S**2>=0.000
      72 -> 76         0.10316
      74 -> 76         0.67480
      75 -> 79         0.14073

 Excited State   3:      Singlet-A      3.7687 eV  328.98 nm  f=0.0342  <S**2>=0.000
      73 -> 76         0.60590
      75 -> 78        -0.33737

 Excited State   4:      Singlet-A      3.8561 eV  321.53 nm  f=0.0014  <S**2>=0.000
      72 -> 76         0.57998
      74 -> 76        -0.11172
      75 -> 77         0.28921
      75 -> 79         0.23126

 Excited State   5:      Singlet-A      4.1575 eV  298.22 nm  f=0.0013  <S**2>=0.000
      72 -> 76        -0.25033
      74 -> 76         0.10836
      75 -> 77         0.61793

 Excited State   6:      Singlet-A      4.3164 eV  287.24 nm  f=0.0176  <S**2>=0.000
      71 -> 76         0.60654
      72 -> 77        -0.12173
      73 -> 76         0.17271
      74 -> 77        -0.20621
      75 -> 78         0.16184

 Excited State   7:      Singlet-A      4.4367 eV  279.45 nm  f=0.0134  <S**2>=0.000
      72 -> 76        -0.25901
      73 -> 77         0.24917
      75 -> 79         0.59402

 Excited State   8:      Singlet-A      4.4842 eV  276.49 nm  f=0.1183  <S**2>=0.000
      71 -> 76        -0.32308
      72 -> 77        -0.18360
      73 -> 76         0.25000
      74 -> 77        -0.22880
      74 -> 79         0.11054
      75 -> 78         0.47911

 Excited State   9:      Singlet-A      4.7377 eV  261.70 nm  f=0.0279  <S**2>=0.000
      71 -> 76         0.11480
      72 -> 79        -0.14608
      73 -> 78         0.13332
      74 -> 77         0.54993
      74 -> 79         0.26463
      75 -> 78         0.25670

 Excited State  10:      Singlet-A      4.8258 eV  256.92 nm  f=0.0000  <S**2>=0.000
      72 -> 78        -0.15493
      73 -> 77        -0.35840
      73 -> 79         0.15515
      74 -> 78         0.52947
      75 -> 79         0.16220

 Excited State  11:      Singlet-A      4.9816 eV  248.88 nm  f=0.0073  <S**2>=0.000
      72 -> 77         0.45726
      74 -> 77        -0.23748
      74 -> 79         0.46312

 Excited State  12:      Singlet-A      5.1520 eV  240.65 nm  f=0.1253  <S**2>=0.000
      72 -> 77        -0.11907
      73 -> 78        -0.14860
      74 -> 79         0.15834
      75 -> 80         0.64881

 Excited State  13:      Singlet-A      5.2002 eV  238.42 nm  f=0.0197  <S**2>=0.000
      71 -> 77         0.12935
      72 -> 78         0.12958
      73 -> 77         0.44039
      73 -> 79         0.41597
      74 -> 78         0.22715
      75 -> 79        -0.12903

 Excited State  14:      Singlet-A      5.2717 eV  235.19 nm  f=0.0308  <S**2>=0.000
      72 -> 79         0.29198
      73 -> 78         0.61370

 Excited State  15:      Singlet-A      5.3308 eV  232.58 nm  f=0.0001  <S**2>=0.000
      70 -> 76         0.16912
      71 -> 77        -0.27568
      71 -> 79        -0.10776
      72 -> 78         0.56454
      74 -> 78         0.15498

 Excited State  16:      Singlet-A      5.4035 eV  229.45 nm  f=0.0348  <S**2>=0.000
      69 -> 76        -0.14896
      70 -> 76         0.20320
      71 -> 77         0.15000
      71 -> 79         0.16065
      72 -> 78         0.14006
      73 -> 77        -0.23632
      73 -> 79         0.40948
      74 -> 78        -0.30553
      75 -> 79         0.10129

 The electronic state is 1-A.
 Alpha  occ. eigenvalues --  -19.17116 -19.17115 -10.25403 -10.25402 -10.20519
 Alpha  occ. eigenvalues --  -10.20495 -10.19567 -10.19567 -10.19393 -10.19392
 Alpha  occ. eigenvalues --  -10.19300 -10.19299 -10.18852 -10.18851 -10.18089
 Alpha  occ. eigenvalues --  -10.18088 -10.17880 -10.17880 -10.17750 -10.17750
 Alpha  occ. eigenvalues --  -10.17469 -10.17465  -1.05440  -1.05377  -0.86742
 Alpha  occ. eigenvalues --   -0.86039  -0.81250  -0.80766  -0.78613  -0.74968
 Alpha  occ. eigenvalues --   -0.72688  -0.72604  -0.71704  -0.70627  -0.63078
 Alpha  occ. eigenvalues --   -0.62546  -0.60686  -0.60651  -0.59473  -0.56610
 Alpha  occ. eigenvalues --   -0.54985  -0.54365  -0.51759  -0.50135  -0.48832
 Alpha  occ. eigenvalues --   -0.48464  -0.46371  -0.46214  -0.44773  -0.43765
 Alpha  occ. eigenvalues --   -0.42641  -0.42293  -0.41718  -0.41307  -0.40632
 Alpha  occ. eigenvalues --   -0.39940  -0.38829  -0.38562  -0.38357  -0.36867
 Alpha  occ. eigenvalues --   -0.36226  -0.35824  -0.34968  -0.33126  -0.32837
 Alpha  occ. eigenvalues --   -0.32722  -0.32137  -0.30315  -0.29143  -0.28133
 Alpha  occ. eigenvalues --   -0.24264  -0.22184  -0.21824  -0.21106  -0.18667
 Alpha virt. eigenvalues --   -0.05584  -0.01559  -0.00549  -0.00348   0.02770
 Alpha virt. eigenvalues --    0.04940   0.06895   0.07270   0.08621   0.08974
 Alpha virt. eigenvalues --    0.11057   0.11403   0.12332   0.12622   0.14110

 Mulliken charges:
               1
     1  C   -0.138225
     2  C   -0.137965
     3  C    0.039653
     4  C    0.100469
     5  C   -0.183315
     6  C   -0.135759
     7  H    0.120859
     8  H    0.136421
     9  C   -0.008011
    10  C   -0.158105
    11  H    0.123781
    12  H    0.124281
    13  C   -0.216737
    14  C    0.288771
    15  H    0.134857
    16  H    0.120182
    17  C   -0.135764
    18  C   -0.183325
    19  C    0.100523
    20  C    0.039695
    21  C   -0.137953
    22  C   -0.138250
    23  H    0.134862
    24  H    0.124284
    25  H    0.123785
    26  C   -0.158140
    27  C   -0.008068
    28  H    0.136519
    29  H    0.120888
    30  C    0.288640
    31  C   -0.216690
    32  H    0.120165
    33  O   -0.616309
    34  H    0.405066
    35  O   -0.616134
    36  H    0.405051
 Sum of Mulliken charges =  -0.00000

 Dipole moment (field-independent basis, Debye):
    X=              0.0018    Y=             -0.0017    Z=              0.7017  Tot=              0.7017
 Quadrupole moment (field-independent basis, Debye-Ang):
   XX=           -116.3213   YY=            -97.3442   ZZ=           -129.9535
   XY=              5.7357   XZ=             -0.0040   YZ=             -0.0107

 1\1\GINC-CCC175\SP\RB3LYP TD-FC\6-31G(d)\C20H14O2\ROOT\20-Feb-2025\0\\
 # td=(nstat=16) b3lyp/6-31g(d)\\binol | No.12\\0,1\C,0,-3.277754,-1.74
 5491,-1.102845\C,0,-2.047525,-1.244274,-0.719875\C,0,-1.904397,-0.0774
 04,0.077787\C,0,-3.110788,0.695286,0.184288\C,0,-4.376187,0.134799,-0.
 128193\C,0,-4.471377,-1.099232,-0.729988\H,0,-3.315814,-2.636109,-1.72
 5131\H,0,-1.167441,-1.730216,-1.108514\C,0,-0.605111,0.454911,0.606447
 \C,0,-3.002287,2.099276,0.356649\H,0,-5.262668,0.742033,0.04099\H,0,-5
 .437808,-1.520189,-0.993114\C,0,-1.760922,2.654323,0.336367\C,0,-0.582

 Normal termination of Gaussian 16 at Thu Feb 20 09:35:11 2025.
