 Gaussian 16, Revision C.02,
 Gaussian 16:  ES64L-G16RevC.02  7-Dec-2021

 ------------------------------
 # td=(nstat=16) b3lyp/6-31g(d)
 ------------------------------

 ------------
 binol | No.9
 ------------
 Symbolic Z-matrix:
 Charge =  0 Multiplicity = 1

                         Standard orientation:
 ---------------------------------------------------------------------
 Center     Atomic      Atomic             Coordinates (Angstroms)
 Number     Number       Type             X           Y           Z
 ---------------------------------------------------------------------
      1          6           0        3.075199   -1.853511    1.243481
      2          6           0        1.909163   -1.376930    0.683329
      3          6           0        1.844741   -0.133637   -0.009598
      4          6           0        3.035719    0.670003    0.073017
      5          6           0        4.240249    0.136588    0.605035
      6          6           0        4.277145   -1.118948    1.161303
      7          1           0        3.059171   -2.802547    1.773664
      8          1           0        1.007550   -1.951446    0.828853
      9          6           0        0.644328    0.389307   -0.673939
     10          6           0        2.972598    2.046411   -0.256245
     11          1           0        5.125533    0.768650    0.601518
     12          1           0        5.197598   -1.516866    1.579340
     13          6           0        1.777227    2.599860   -0.615272
     14          6           0        0.627572    1.786891   -0.779265
     15          1           0        3.867524    2.657947   -0.175033
     16          1           0        1.696295    3.665448   -0.824121
     17          6           0       -4.277355    1.118675    1.161252
     18          6           0       -4.240300   -0.136829    0.604928
     19          6           0       -3.035688   -0.670092    0.072941
     20          6           0       -1.844776    0.133673   -0.009580
     21          6           0       -1.909367    1.376925    0.683407
     22          6           0       -3.075489    1.853356    1.243512
     23          1           0       -3.867320   -2.658083   -0.175224
     24          1           0       -5.197866    1.516475    1.579274
     25          1           0       -5.125514   -0.768987    0.601343
     26          6           0       -2.972444   -2.046468   -0.256401
     27          6           0       -0.644310   -0.389123   -0.673893
     28          1           0       -1.007849    1.951544    0.829016
     29          1           0       -3.059586    2.802376    1.773727
     30          6           0       -0.627460   -1.786705   -0.779410
     31          6           0       -1.777025   -2.599796   -0.615469
     32          1           0       -1.696004   -3.665361   -0.824396
     33          8           0       -0.471867    2.370682   -1.364175
     34          1           0       -0.310653    3.321593   -1.459657
     35          8           0        0.472070   -2.370345   -1.364279
     36          1           0        0.311119   -3.321330   -1.459473
 ---------------------------------------------------------------------

 SCF Done:  E(RB3LYP) =  -920.972796962     A.U. after   14 cycles

 Excitation energies and oscillator strengths:

 Excited State   1:      Singlet-A      3.3792 eV  366.90 nm  f=0.2343  <S**2>=0.000
      75 -> 76         0.69886
 This state for optimization and/or second-order correction.
 Total Energy, E(TD-HF/TD-DFT) =  -920.848613384
 Copying the excited state density for this state as the 1-particle RhoCI density.

 Excited State   2:      Singlet-A      3.6795 eV  336.96 nm  f=0.0012  <S**2>=0.000
      74 -> 76         0.67095
      75 -> 77         0.17229

 Excited State   3:      Singlet-A      4.0532 eV  305.89 nm  f=0.0010  <S**2>=0.000
      72 -> 76        -0.32184
      75 -> 77         0.57306
      75 -> 79         0.19650

 Excited State   4:      Singlet-A      4.0591 eV  305.45 nm  f=0.0271  <S**2>=0.000
      73 -> 76         0.57337
      74 -> 77         0.10327
      74 -> 79         0.10862
      75 -> 78         0.36879

 Excited State   5:      Singlet-A      4.2428 eV  292.22 nm  f=0.0016  <S**2>=0.000
      72 -> 76         0.51001
      74 -> 76        -0.16410
      74 -> 78        -0.13864
      75 -> 77         0.34788
      75 -> 79        -0.24993

 Excited State   6:      Singlet-A      4.4669 eV  277.56 nm  f=0.0363  <S**2>=0.000
      71 -> 76        -0.18275
      72 -> 77         0.14451
      73 -> 76        -0.27185
      74 -> 77         0.55776
      75 -> 78         0.21093

 Excited State   7:      Singlet-A      4.6545 eV  266.37 nm  f=0.0197  <S**2>=0.000
      72 -> 76         0.30311
      73 -> 77        -0.34690
      75 -> 79         0.52139

 Excited State   8:      Singlet-A      4.7596 eV  260.49 nm  f=0.0645  <S**2>=0.000
      71 -> 76         0.37519
      72 -> 77        -0.16231
      73 -> 76         0.16277
      74 -> 77         0.36567
      74 -> 79         0.17725
      75 -> 78        -0.34833

 Excited State   9:      Singlet-A      4.7884 eV  258.93 nm  f=0.0547  <S**2>=0.000
      71 -> 76         0.53979
      73 -> 76        -0.13234
      74 -> 79        -0.21526
      75 -> 78         0.34133

 Excited State  10:      Singlet-A      4.8969 eV  253.19 nm  f=0.0003  <S**2>=0.000
      72 -> 78        -0.10099
      73 -> 77        -0.37074
      74 -> 78         0.53225
      75 -> 79        -0.22266

 Excited State  11:      Singlet-A      5.0108 eV  247.43 nm  f=0.0046  <S**2>=0.000
      72 -> 77         0.49957
      74 -> 77        -0.12003
      74 -> 79         0.44903

 Excited State  12:      Singlet-A      5.2826 eV  234.70 nm  f=0.1452  <S**2>=0.000
      71 -> 76        -0.11709
      74 -> 79        -0.17186
      75 -> 80         0.65648

 Excited State  13:      Singlet-A      5.4805 eV  226.23 nm  f=0.0988  <S**2>=0.000
      70 -> 76         0.10181
      71 -> 77         0.27822
      72 -> 76         0.12088
      73 -> 77         0.38848
      73 -> 79         0.22375
      74 -> 78         0.30512
      75 -> 79         0.18408
      75 -> 81        -0.16731

 Excited State  14:      Singlet-A      5.5568 eV  223.12 nm  f=0.0134  <S**2>=0.000
      71 -> 77        -0.40874
      71 -> 79        -0.12260
      72 -> 78         0.45119
      74 -> 78         0.18934
      74 -> 80        -0.10078
      75 -> 81         0.20193

 Excited State  15:      Singlet-A      5.5638 eV  222.84 nm  f=0.0655  <S**2>=0.000
      72 -> 77        -0.13041
      72 -> 79         0.32149
      73 -> 78         0.58869

 Excited State  16:      Singlet-A      5.6241 eV  220.45 nm  f=0.0065  <S**2>=0.000
      70 -> 76        -0.28013
      71 -> 79         0.12275
      72 -> 78         0.11600
      73 -> 79         0.52499
      74 -> 78        -0.11892
      74 -> 80         0.27042
      75 -> 81         0.13867

 The electronic state is 1-A.
 Alpha  occ. eigenvalues --  -19.17286 -19.17286 -10.24929 -10.24928 -10.19811
 Alpha  occ. eigenvalues --  -10.19787 -10.19680 -10.19680 -10.19308 -10.19308
 Alpha  occ. eigenvalues --  -10.19209 -10.19209 -10.18919 -10.18919 -10.18210
 Alpha  occ. eigenvalues --  -10.18210 -10.18018 -10.18018 -10.17949 -10.17949
 Alpha  occ. eigenvalues --  -10.17566 -10.17566  -1.05609  -1.05521  -0.86843
 Alpha  occ. eigenvalues --   -0.85976  -0.81392  -0.80926  -0.78731  -0.75033
 Alpha  occ. eigenvalues --   -0.72942  -0.72900  -0.71848  -0.70587  -0.63122
 Alpha  occ. eigenvalues --   -0.62708  -0.60934  -0.60877  -0.59592  -0.56727
 Alpha  occ. eigenvalues --   -0.54783  -0.54435  -0.51809  -0.50186  -0.48971
 Alpha  occ. eigenvalues --   -0.48751  -0.46346  -0.46323  -0.44621  -0.43562
 Alpha  occ. eigenvalues --   -0.42779  -0.42124  -0.41780  -0.41420  -0.41120
 Alpha  occ. eigenvalues --   -0.39685  -0.39070  -0.38825  -0.38556  -0.36802
 Alpha  occ. eigenvalues --   -0.36123  -0.35873  -0.35085  -0.33739  -0.33529
 Alpha  occ. eigenvalues --   -0.32982  -0.31651  -0.30516  -0.29693  -0.28640
 Alpha  occ. eigenvalues --   -0.24984  -0.22693  -0.22357  -0.20769  -0.18894
 Alpha virt. eigenvalues --   -0.04900  -0.01887  -0.00017   0.00257   0.02967
 Alpha virt. eigenvalues --    0.04956   0.06932   0.07053   0.09537   0.09604
 Alpha virt. eigenvalues --    0.10830   0.11237   0.12037   0.12201   0.14317

 Mulliken charges:
               1
     1  C   -0.141561
     2  C   -0.152214
     3  C    0.083986
     4  C    0.115594
     5  C   -0.185441
     6  C   -0.138220
     7  H    0.121831
     8  H    0.131680
     9  C   -0.010296
    10  C   -0.179660
    11  H    0.123975
    12  H    0.124797
    13  C   -0.211083
    14  C    0.279092
    15  H    0.133558
    16  H    0.119909
    17  C   -0.138219
    18  C   -0.185445
    19  C    0.115607
    20  C    0.083983
    21  C   -0.152234
    22  C   -0.141550
    23  H    0.133558
    24  H    0.124798
    25  H    0.123976
    26  C   -0.179677
    27  C   -0.010298
    28  H    0.131683
    29  H    0.121834
    30  C    0.279064
    31  C   -0.211066
    32  H    0.119909
    33  O   -0.621357
    34  H    0.405420
    35  O   -0.621351
    36  H    0.405418
 Sum of Mulliken charges =  -0.00000

 Dipole moment (field-independent basis, Debye):
    X=              0.0004    Y=             -0.0001    Z=              0.4179  Tot=              0.4179
 Quadrupole moment (field-independent basis, Debye-Ang):
   XX=           -116.6135   YY=            -97.0424   ZZ=           -129.4839
   XY=              5.4529   XZ=             -0.0006   YZ=             -0.0007

 1\1\GINC-CCC159\SP\RB3LYP TD-FC\6-31G(d)\C20H14O2\ROOT\20-Feb-2025\0\\
 # td=(nstat=16) b3lyp/6-31g(d)\\binol | No.9\\0,1\C,0,-3.075199,-1.853
 511,-1.243481\C,0,-1.909163,-1.37693,-0.683329\C,0,-1.844741,-0.133637
 ,0.009598\C,0,-3.035719,0.670003,-0.073017\C,0,-4.240249,0.136588,-0.6
 05035\C,0,-4.277145,-1.118948,-1.161303\H,0,-3.059171,-2.802547,-1.773
 664\H,0,-1.00755,-1.951446,-0.828853\C,0,-0.644328,0.389307,0.673939\C
 ,0,-2.972598,2.046411,0.256245\H,0,-5.125533,0.76865,-0.601518\H,0,-5.
 197598,-1.516866,-1.57934\C,0,-1.777227,2.59986,0.615272\C,0,-0.627572

 Normal termination of Gaussian 16 at Thu Feb 20 09:32:35 2025.
