 Gaussian 16, Revision C.02,
 Gaussian 16:  ES64L-G16RevC.02  7-Dec-2021

 ------------------------------
 # td=(nstat=16) b3lyp/6-31g(d)
 ------------------------------

 ------------
 binol | No.8
 ------------
 Symbolic Z-matrix:
 Charge =  0 Multiplicity = 1

                         Standard orientation:
 ---------------------------------------------------------------------
 Center     Atomic      Atomic             Coordinates (Angstroms)
 Number     Number       Type             X           Y           Z
 ---------------------------------------------------------------------
      1          6           0       -3.028260    1.873438    1.295175
      2          6           0       -1.877577    1.398384    0.704475
      3          6           0       -1.832797    0.146974    0.024760
      4          6           0       -3.025808   -0.651910    0.114219
      5          6           0       -4.211466   -0.121045    0.689715
      6          6           0       -4.228443    1.130559    1.255751
      7          1           0       -3.003952    2.829024    1.813078
      8          1           0       -0.974087    1.981300    0.803314
      9          6           0       -0.649811   -0.376363   -0.650400
     10          6           0       -2.985981   -2.012105   -0.279953
     11          1           0       -5.100419   -0.747842    0.702485
     12          1           0       -5.135600    1.525939    1.704222
     13          6           0       -1.812569   -2.562118   -0.715173
     14          6           0       -0.654464   -1.759553   -0.861026
     15          1           0       -3.885193   -2.617419   -0.198667
     16          1           0       -1.757818   -3.615814   -0.984453
     17          6           0        4.228389   -1.130621    1.255770
     18          6           0        4.211450    0.120995    0.689756
     19          6           0        3.025816    0.651894    0.114243
     20          6           0        1.832789   -0.146961    0.024761
     21          6           0        1.877529   -1.398388    0.704446
     22          6           0        3.028192   -1.873480    1.295154
     23          1           0        3.885244    2.617394   -0.198596
     24          1           0        5.135531   -1.526030    1.704243
     25          1           0        5.100417    0.747772    0.702550
     26          6           0        2.986022    2.012097   -0.279908
     27          6           0        0.649822    0.376400   -0.650409
     28          1           0        0.974025   -1.981295    0.803235
     29          1           0        3.003856   -2.829081    1.813028
     30          6           0        0.654515    1.759586   -0.861056
     31          6           0        1.812629    2.562134   -0.715148
     32          1           0        1.757896    3.615839   -0.984397
     33          8           0        0.445236   -2.321559   -1.461824
     34          1           0        0.274772   -3.263942   -1.611076
     35          8           0       -0.445207    2.321636   -1.461791
     36          1           0       -0.274762    3.264035   -1.610957
 ---------------------------------------------------------------------

 SCF Done:  E(RB3LYP) =  -920.986728738     A.U. after   14 cycles

 Excitation energies and oscillator strengths:

 Excited State   1:      Singlet-A      3.4382 eV  360.61 nm  f=0.2188  <S**2>=0.000
      75 -> 76         0.69802
 This state for optimization and/or second-order correction.
 Total Energy, E(TD-HF/TD-DFT) =  -920.860377549
 Copying the excited state density for this state as the 1-particle RhoCI density.

 Excited State   2:      Singlet-A      3.7322 eV  332.21 nm  f=0.0015  <S**2>=0.000
      74 -> 76         0.66214
      75 -> 77        -0.20985

 Excited State   3:      Singlet-A      4.0657 eV  304.95 nm  f=0.0012  <S**2>=0.000
      72 -> 76         0.24286
      74 -> 76         0.13834
      75 -> 77         0.60687
      75 -> 79         0.16776

 Excited State   4:      Singlet-A      4.1309 eV  300.14 nm  f=0.0219  <S**2>=0.000
      73 -> 76         0.55339
      74 -> 77        -0.14352
      74 -> 79        -0.11591
      75 -> 78         0.38015

 Excited State   5:      Singlet-A      4.2980 eV  288.47 nm  f=0.0013  <S**2>=0.000
      72 -> 76         0.53834
      74 -> 76        -0.16163
      74 -> 78        -0.15066
      75 -> 77        -0.26093
      75 -> 79         0.28972

 Excited State   6:      Singlet-A      4.4730 eV  277.19 nm  f=0.0406  <S**2>=0.000
      71 -> 76         0.11140
      72 -> 77         0.11855
      73 -> 76         0.28124
      74 -> 77         0.59953
      75 -> 78        -0.13545

 Excited State   7:      Singlet-A      4.7034 eV  263.60 nm  f=0.0200  <S**2>=0.000
      72 -> 76        -0.31803
      73 -> 77        -0.37244
      75 -> 79         0.49477

 Excited State   8:      Singlet-A      4.7860 eV  259.06 nm  f=0.0938  <S**2>=0.000
      71 -> 76        -0.14251
      72 -> 77        -0.23152
      73 -> 76        -0.23740
      74 -> 77         0.27483
      74 -> 79         0.23096
      75 -> 78         0.47384

 Excited State   9:      Singlet-A      4.8925 eV  253.41 nm  f=0.0159  <S**2>=0.000
      71 -> 76         0.63476
      74 -> 79         0.18490
      75 -> 78         0.15920
      75 -> 80         0.13479

 Excited State  10:      Singlet-A      4.9135 eV  252.33 nm  f=0.0007  <S**2>=0.000
      73 -> 77         0.36658
      74 -> 78         0.52934
      75 -> 79         0.24642

 Excited State  11:      Singlet-A      5.0217 eV  246.90 nm  f=0.0018  <S**2>=0.000
      71 -> 76        -0.16364
      72 -> 77         0.49797
      74 -> 79         0.43203

 Excited State  12:      Singlet-A      5.3152 eV  233.26 nm  f=0.1473  <S**2>=0.000
      71 -> 76        -0.15542
      74 -> 79         0.16781
      75 -> 80         0.65126

 Excited State  13:      Singlet-A      5.5244 eV  224.43 nm  f=0.1060  <S**2>=0.000
      70 -> 76        -0.16386
      71 -> 77         0.31931
      72 -> 76        -0.12331
      73 -> 77         0.34770
      73 -> 79         0.17258
      74 -> 78        -0.28770
      74 -> 80         0.14473
      75 -> 79         0.17280
      75 -> 81        -0.21348

 Excited State  14:      Singlet-A      5.6123 eV  220.91 nm  f=0.0296  <S**2>=0.000
      71 -> 77         0.38671
      71 -> 79         0.11218
      72 -> 78         0.44228
      74 -> 78         0.21031
      74 -> 80        -0.10668
      75 -> 79        -0.10981
      75 -> 81        -0.21654

 Excited State  15:      Singlet-A      5.6329 eV  220.11 nm  f=0.0742  <S**2>=0.000
      72 -> 77         0.12790
      72 -> 79        -0.34458
      73 -> 78         0.57505
      74 -> 79        -0.10280

 Excited State  16:      Singlet-A      5.6805 eV  218.26 nm  f=0.0000  <S**2>=0.000
      70 -> 76         0.27829
      71 -> 79         0.11542
      73 -> 79         0.51076
      74 -> 80        -0.32672
      75 -> 81         0.10967

 The electronic state is 1-A.
 Alpha  occ. eigenvalues --  -19.17368 -19.17368 -10.24825 -10.24824 -10.19616
 Alpha  occ. eigenvalues --  -10.19613 -10.19572 -10.19549 -10.19260 -10.19260
 Alpha  occ. eigenvalues --  -10.19173 -10.19173 -10.18897 -10.18897 -10.18217
 Alpha  occ. eigenvalues --  -10.18217 -10.18041 -10.18041 -10.17957 -10.17957
 Alpha  occ. eigenvalues --  -10.17573 -10.17573  -1.05669  -1.05576  -0.86864
 Alpha  occ. eigenvalues --   -0.85950  -0.81393  -0.80918  -0.78718  -0.75041
 Alpha  occ. eigenvalues --   -0.72962  -0.72925  -0.71854  -0.70540  -0.63093
 Alpha  occ. eigenvalues --   -0.62693  -0.60971  -0.60939  -0.59624  -0.56718
 Alpha  occ. eigenvalues --   -0.54753  -0.54459  -0.51760  -0.50191  -0.48938
 Alpha  occ. eigenvalues --   -0.48812  -0.46340  -0.46335  -0.44534  -0.43459
 Alpha  occ. eigenvalues --   -0.42738  -0.42099  -0.41715  -0.41435  -0.41289
 Alpha  occ. eigenvalues --   -0.39684  -0.39127  -0.38914  -0.38614  -0.36755
 Alpha  occ. eigenvalues --   -0.36112  -0.35841  -0.35078  -0.33890  -0.33664
 Alpha  occ. eigenvalues --   -0.33026  -0.31516  -0.30485  -0.29779  -0.28593
 Alpha  occ. eigenvalues --   -0.25184  -0.22749  -0.22444  -0.20694  -0.18921
 Alpha virt. eigenvalues --   -0.04655  -0.01958   0.00130   0.00418   0.03026
 Alpha virt. eigenvalues --    0.04988   0.06947   0.07039   0.09748   0.09889
 Alpha virt. eigenvalues --    0.10799   0.11321   0.11981   0.12145   0.14354

 Mulliken charges:
               1
     1  C   -0.141709
     2  C   -0.157504
     3  C    0.094280
     4  C    0.122585
     5  C   -0.187882
     6  C   -0.138109
     7  H    0.122299
     8  H    0.132345
     9  C   -0.011820
    10  C   -0.186206
    11  H    0.123993
    12  H    0.124719
    13  C   -0.208209
    14  C    0.278573
    15  H    0.133012
    16  H    0.119626
    17  C   -0.138108
    18  C   -0.187885
    19  C    0.122591
    20  C    0.094267
    21  C   -0.157496
    22  C   -0.141714
    23  H    0.133013
    24  H    0.124719
    25  H    0.123992
    26  C   -0.186211
    27  C   -0.011819
    28  H    0.132349
    29  H    0.122299
    30  C    0.278576
    31  C   -0.208194
    32  H    0.119625
    33  O   -0.625842
    34  H    0.405848
    35  O   -0.625853
    36  H    0.405848
 Sum of Mulliken charges =  -0.00000

 Dipole moment (field-independent basis, Debye):
    X=             -0.0000    Y=              0.0000    Z=              0.1415  Tot=              0.1415
 Quadrupole moment (field-independent basis, Debye-Ang):
   XX=           -116.7353   YY=            -97.6032   ZZ=           -128.4731
   XY=              5.6180   XZ=             -0.0000   YZ=              0.0007

 1\1\GINC-CCC139\SP\RB3LYP TD-FC\6-31G(d)\C20H14O2\ROOT\20-Feb-2025\0\\
 # td=(nstat=16) b3lyp/6-31g(d)\\binol | No.8\\0,1\C,0,-3.02826,-1.8734
 38,-1.295175\C,0,-1.877577,-1.398384,-0.704475\C,0,-1.832797,-0.146974
 ,-0.02476\C,0,-3.025808,0.65191,-0.114219\C,0,-4.211466,0.121045,-0.68
 9715\C,0,-4.228443,-1.130559,-1.255751\H,0,-3.003952,-2.829024,-1.8130
 78\H,0,-0.974087,-1.9813,-0.803314\C,0,-0.649811,0.376363,0.6504\C,0,-
 2.985981,2.012105,0.279953\H,0,-5.100419,0.747842,-0.702485\H,0,-5.135
 6,-1.525939,-1.704222\C,0,-1.812569,2.562118,0.715173\C,0,-0.654464,1.

 Normal termination of Gaussian 16 at Thu Feb 20 09:32:17 2025.
