 Gaussian 16, Revision C.02,
 Gaussian 16:  ES64L-G16RevC.02  7-Dec-2021

 ------------------------------
 # td=(nstat=16) b3lyp/6-31g(d)
 ------------------------------

 ------------
 binol | No.2
 ------------
 Symbolic Z-matrix:
 Charge =  0 Multiplicity = 1

                         Standard orientation:
 ---------------------------------------------------------------------
 Center     Atomic      Atomic             Coordinates (Angstroms)
 Number     Number       Type             X           Y           Z
 ---------------------------------------------------------------------
      1          6           0       -1.718403    2.726698   -1.830828
      2          6           0       -1.278474    1.655443   -1.086247
      3          6           0       -0.128762    1.760153   -0.254213
      4          6           0        0.562766    3.017102   -0.219296
      5          6           0        0.080892    4.102952   -0.997925
      6          6           0       -1.036727    3.966787   -1.788330
      7          1           0       -2.598533    2.619733   -2.459753
      8          1           0       -1.806452    0.708618   -1.129797
      9          6           0        0.349511    0.660537    0.527066
     10          6           0        1.718403    3.139963    0.593422
     11          1           0        0.617112    5.048659   -0.957442
     12          1           0       -1.396152    4.803927   -2.380507
     13          6           0        2.172770    2.077021    1.333995
     14          6           0        1.487205    0.836482    1.301814
     15          1           0        2.245493    4.090506    0.623051
     16          1           0        3.060514    2.178179    1.956655
     17          6           0        1.036727   -3.966787   -1.788330
     18          6           0       -0.080892   -4.102952   -0.997925
     19          6           0       -0.562766   -3.017102   -0.219296
     20          6           0        0.128762   -1.760153   -0.254213
     21          6           0        1.278474   -1.655443   -1.086247
     22          6           0        1.718403   -2.726698   -1.830828
     23          1           0       -2.245493   -4.090506    0.623051
     24          1           0        1.396152   -4.803927   -2.380507
     25          1           0       -0.617112   -5.048659   -0.957442
     26          6           0       -1.718403   -3.139963    0.593422
     27          6           0       -0.349511   -0.660537    0.527066
     28          1           0        1.806452   -0.708618   -1.129797
     29          1           0        2.598533   -2.619733   -2.459753
     30          6           0       -1.487205   -0.836482    1.301814
     31          6           0       -2.172770   -2.077021    1.333995
     32          1           0       -3.060514   -2.178179    1.956655
     33          8           0        1.933238   -0.224087    2.043321
     34          1           0        2.730560    0.045273    2.524476
     35          8           0       -1.933238    0.224087    2.043321
     36          1           0       -2.730560   -0.045273    2.524476
 ---------------------------------------------------------------------

 SCF Done:  E(RB3LYP) =  -921.015620329     A.U. after   14 cycles

 Excitation energies and oscillator strengths:

 Excited State   1:      Singlet-B      3.8060 eV  325.76 nm  f=0.0832  <S**2>=0.000
      74 -> 77         0.18018
      75 -> 76         0.67530
 This state for optimization and/or second-order correction.
 Total Energy, E(TD-HF/TD-DFT) =  -920.875753170
 Copying the excited state density for this state as the 1-particle RhoCI density.

 Excited State   2:      Singlet-A      3.8875 eV  318.93 nm  f=0.0000  <S**2>=0.000
      74 -> 76         0.49445
      75 -> 77         0.50166

 Excited State   3:      Singlet-A      4.1253 eV  300.55 nm  f=0.0118  <S**2>=0.000
      72 -> 77         0.11078
      72 -> 79        -0.10849
      73 -> 76        -0.10877
      73 -> 78        -0.12373
      74 -> 76        -0.45782
      74 -> 78         0.10016
      75 -> 77         0.46028
      75 -> 79         0.10828

 Excited State   4:      Singlet-B      4.1485 eV  298.87 nm  f=0.0870  <S**2>=0.000
      74 -> 77         0.64225
      75 -> 76        -0.13795
      75 -> 78         0.16580

 Excited State   5:      Singlet-B      4.4929 eV  275.95 nm  f=0.0344  <S**2>=0.000
      72 -> 76         0.45303
      73 -> 77        -0.24364
      74 -> 77         0.18935
      74 -> 79        -0.17929
      75 -> 76        -0.11452
      75 -> 78        -0.38493

 Excited State   6:      Singlet-A      4.5173 eV  274.47 nm  f=0.0000  <S**2>=0.000
      72 -> 77        -0.24431
      73 -> 76         0.44845
      74 -> 76        -0.16866
      74 -> 78        -0.26700
      75 -> 77         0.13750
      75 -> 79        -0.33920

 Excited State   7:      Singlet-A      4.7885 eV  258.92 nm  f=0.0023  <S**2>=0.000
      72 -> 77         0.53997
      73 -> 76         0.43545
      75 -> 79         0.10729

 Excited State   8:      Singlet-B      4.7935 eV  258.65 nm  f=0.0053  <S**2>=0.000
      72 -> 76         0.43507
      73 -> 77         0.53615
      75 -> 78         0.13553

 Excited State   9:      Singlet-A      4.8951 eV  253.28 nm  f=0.0003  <S**2>=0.000
      74 -> 78         0.51161
      75 -> 79        -0.48143

 Excited State  10:      Singlet-B      4.9151 eV  252.25 nm  f=0.0181  <S**2>=0.000
      73 -> 77         0.16176
      74 -> 79         0.52431
      75 -> 78        -0.43528

 Excited State  11:      Singlet-B      5.4574 eV  227.18 nm  f=0.0796  <S**2>=0.000
      70 -> 77         0.15434
      71 -> 76        -0.41340
      73 -> 77         0.11121
      74 -> 79        -0.12181
      74 -> 81         0.12226
      75 -> 80         0.49158

 Excited State  12:      Singlet-A      5.5533 eV  223.26 nm  f=0.0823  <S**2>=0.000
      70 -> 76        -0.29217
      71 -> 77         0.36749
      72 -> 77         0.16496
      73 -> 76        -0.12427
      74 -> 78        -0.16005
      74 -> 80         0.28214
      75 -> 79        -0.12383
      75 -> 81         0.32547

 Excited State  13:      Singlet-B      5.6614 eV  219.00 nm  f=0.0928  <S**2>=0.000
      70 -> 77         0.10588
      71 -> 76         0.50675
      72 -> 78        -0.12699
      74 -> 81        -0.12488
      75 -> 80         0.39758

 Excited State  14:      Singlet-B      5.7478 eV  215.71 nm  f=0.2409  <S**2>=0.000
      72 -> 76        -0.14410
      72 -> 78         0.43662
      73 -> 77         0.16187
      73 -> 79        -0.40559
      74 -> 79        -0.19189
      75 -> 78        -0.15856
      75 -> 80        -0.12255

 Excited State  15:      Singlet-A      5.7491 eV  215.66 nm  f=0.0339  <S**2>=0.000
      71 -> 77        -0.10845
      72 -> 79        -0.23358
      73 -> 78         0.42584
      74 -> 80        -0.40237
      75 -> 81         0.24388

 Excited State  16:      Singlet-A      5.7649 eV  215.07 nm  f=0.0047  <S**2>=0.000
      70 -> 76         0.13606
      71 -> 77         0.16833
      72 -> 79        -0.28097
      73 -> 78         0.40898
      74 -> 80         0.31282
      75 -> 81        -0.31119

 The electronic state is 1-A.
 Alpha  occ. eigenvalues --  -19.17468 -19.17468 -10.24579 -10.24579 -10.19209
 Alpha  occ. eigenvalues --  -10.19209 -10.19132 -10.19132 -10.19067 -10.19067
 Alpha  occ. eigenvalues --  -10.18781 -10.18781 -10.18691 -10.18663 -10.18263
 Alpha  occ. eigenvalues --  -10.18263 -10.18126 -10.18126 -10.17999 -10.17999
 Alpha  occ. eigenvalues --  -10.17679 -10.17679  -1.05638  -1.05470  -0.86979
 Alpha  occ. eigenvalues --   -0.85901  -0.81372  -0.80816  -0.78613  -0.75068
 Alpha  occ. eigenvalues --   -0.72930  -0.72896  -0.71989  -0.70225  -0.62940
 Alpha  occ. eigenvalues --   -0.62199  -0.61340  -0.61035  -0.59765  -0.56751
 Alpha  occ. eigenvalues --   -0.54511  -0.54400  -0.51486  -0.49895  -0.49274
 Alpha  occ. eigenvalues --   -0.48717  -0.46385  -0.46253  -0.44117  -0.42946
 Alpha  occ. eigenvalues --   -0.42486  -0.42120  -0.41533  -0.41515  -0.41096
 Alpha  occ. eigenvalues --   -0.39702  -0.39567  -0.39319  -0.38634  -0.36573
 Alpha  occ. eigenvalues --   -0.36022  -0.35757  -0.35196  -0.34128  -0.33960
 Alpha  occ. eigenvalues --   -0.33232  -0.31271  -0.30131  -0.30003  -0.27272
 Alpha  occ. eigenvalues --   -0.26359  -0.22628  -0.22599  -0.20077  -0.19384
 Alpha virt. eigenvalues --   -0.03300  -0.02716   0.00370   0.00850   0.03639
 Alpha virt. eigenvalues --    0.04398   0.07024   0.07073   0.10186   0.10470
 Alpha virt. eigenvalues --    0.11260   0.11272   0.11871   0.11999   0.14423

 Mulliken charges:
               1
     1  C   -0.134480
     2  C   -0.189409
     3  C    0.117645
     4  C    0.131486
     5  C   -0.195456
     6  C   -0.137282
     7  H    0.125536
     8  H    0.138107
     9  C   -0.053457
    10  C   -0.195243
    11  H    0.124423
    12  H    0.124522
    13  C   -0.195583
    14  C    0.324038
    15  H    0.130973
    16  H    0.118732
    17  C   -0.137282
    18  C   -0.195456
    19  C    0.131486
    20  C    0.117645
    21  C   -0.189409
    22  C   -0.134480
    23  H    0.130973
    24  H    0.124522
    25  H    0.124423
    26  C   -0.195243
    27  C   -0.053457
    28  H    0.138107
    29  H    0.125536
    30  C    0.324038
    31  C   -0.195583
    32  H    0.118732
    33  O   -0.640801
    34  H    0.406249
    35  O   -0.640801
    36  H    0.406249
 Sum of Mulliken charges =  -0.00000

 Dipole moment (field-independent basis, Debye):
    X=             -0.0000    Y=              0.0000    Z=              1.3779  Tot=              1.3779
 Quadrupole moment (field-independent basis, Debye-Ang):
   XX=           -106.5385   YY=           -116.0569   ZZ=           -118.5090
   XY=              7.4267   XZ=              0.0000   YZ=              0.0000

 1\1\GINC-CCC047\SP\RB3LYP TD-FC\6-31G(d)\C20H14O2\ROOT\20-Feb-2025\0\\
 # td=(nstat=16) b3lyp/6-31g(d)\\binol | No.2\\0,1\C,0,-1.718403,2.7266
 98,-1.830828\C,0,-1.278474,1.655443,-1.086247\C,0,-0.128762,1.760153,-
 0.254213\C,0,0.562766,3.017102,-0.219296\C,0,0.080892,4.102952,-0.9979
 25\C,0,-1.036727,3.966787,-1.78833\H,0,-2.598533,2.619733,-2.459753\H,
 0,-1.806452,0.708618,-1.129797\C,0,0.349511,0.660537,0.527066\C,0,1.71
 8403,3.139963,0.593422\H,0,0.617112,5.048659,-0.957442\H,0,-1.396152,4
 .803927,-2.380507\C,0,2.17277,2.077021,1.333995\C,0,1.487205,0.836482,

 Normal termination of Gaussian 16 at Thu Feb 20 09:31:13 2025.
