 Gaussian 16, Revision C.02,
 Gaussian 16:  ES64L-G16RevC.02  7-Dec-2021

 ------------------------------
 # opt=modredundant b3lyp/6-31g
 ------------------------------

 -----------
 Lactic acid
 -----------
 Symbolic Z-matrix:
 Charge =  0 Multiplicity = 1

 SCF Done:  E(RB3LYP) =  -343.467038167     A.U. after   14 cycles
 SCF Done:  E(RB3LYP) =  -343.480232291     A.U. after   13 cycles
 SCF Done:  E(RB3LYP) =  -343.481896751     A.U. after   13 cycles
 SCF Done:  E(RB3LYP) =  -343.480649356     A.U. after   14 cycles
 SCF Done:  E(RB3LYP) =  -343.482429281     A.U. after   12 cycles
 SCF Done:  E(RB3LYP) =  -343.482468623     A.U. after   10 cycles
 SCF Done:  E(RB3LYP) =  -343.482473498     A.U. after    9 cycles
 SCF Done:  E(RB3LYP) =  -343.482481857     A.U. after   10 cycles
 SCF Done:  E(RB3LYP) =  -343.482487914     A.U. after   10 cycles
 SCF Done:  E(RB3LYP) =  -343.482493279     A.U. after   11 cycles
 Optimization completed.
    -- Stationary point found.
 Optimization completed.
 SCF Done:  E(RB3LYP) =  -343.484059941     A.U. after    8 cycles
 SCF Done:  E(RB3LYP) =  -343.484059958     A.U. after    8 cycles
 SCF Done:  E(RB3LYP) =  -343.482530455     A.U. after   12 cycles
 SCF Done:  E(RB3LYP) =  -343.484013765     A.U. after   12 cycles
 SCF Done:  E(RB3LYP) =  -343.484034989     A.U. after   11 cycles
    -- Stationary point found.
 SCF Done:  E(RB3LYP) =  -343.482403335     A.U. after   13 cycles
 SCF Done:  E(RB3LYP) =  -343.483865252     A.U. after   13 cycles
 SCF Done:  E(RB3LYP) =  -343.483884839     A.U. after   11 cycles
 SCF Done:  E(RB3LYP) =  -343.483885049     A.U. after    8 cycles
 SCF Done:  E(RB3LYP) =  -343.483885065     A.U. after    7 cycles
 Optimization completed.
    -- Stationary point found.

                         Standard orientation:
 ---------------------------------------------------------------------
 Center     Atomic      Atomic             Coordinates (Angstroms)
 Number     Number       Type             X           Y           Z
 ---------------------------------------------------------------------
      1          6           0       -0.639518   -0.260377   -0.361134
      2          1           0       -0.586905   -0.771674   -1.329911
      3          8           0       -0.999570   -1.214809    0.690336
      4          1           0       -1.835139   -1.663916    0.449956
      5          6           0       -1.603491    0.919179   -0.406906
      6          1           0       -1.319103    1.630841   -1.189887
      7          1           0       -2.620395    0.569932   -0.618901
      8          1           0       -1.595326    1.439412    0.553845
      9          6           0        0.767376    0.175812    0.012614
     10          8           0        1.060530    1.130490    0.732512
     11          8           0        1.713597   -0.644079   -0.556731
     12          1           0        2.614208   -0.385091   -0.261489
 ---------------------------------------------------------------------

 The electronic state is 1-A.
 Alpha  occ. eigenvalues --  -19.20130 -19.15621 -19.15407 -10.33701 -10.26216
 Alpha  occ. eigenvalues --  -10.18456  -1.12205  -1.03585  -1.02955  -0.78554
 Alpha  occ. eigenvalues --   -0.69253  -0.59989  -0.53367  -0.50805  -0.47610
 Alpha  occ. eigenvalues --   -0.44311  -0.43075  -0.41246  -0.39203  -0.38069
 Alpha  occ. eigenvalues --   -0.34259  -0.32383  -0.28401  -0.28167
 Alpha virt. eigenvalues --   -0.02543   0.06152   0.06683   0.12315   0.14084
 Alpha virt. eigenvalues --    0.14638   0.16857   0.20135   0.20684   0.22759
 Alpha virt. eigenvalues --    0.29705   0.33393   0.53748   0.55318   0.56278

 Mulliken charges:
               1
     1  C    0.060896
     2  H    0.155943
     3  O   -0.595153
     4  H    0.365713
     5  C   -0.405759
     6  H    0.145087
     7  H    0.129869
     8  H    0.183694
     9  C    0.519919
    10  O   -0.400124
    11  O   -0.546848
    12  H    0.386763
 Sum of Mulliken charges =  -0.00000

 Dipole moment (field-independent basis, Debye):
    X=             -1.1647    Y=             -0.7932    Z=             -2.2782  Tot=              2.6788
 Quadrupole moment (field-independent basis, Debye-Ang):
   XX=            -25.3608   YY=            -38.1742   ZZ=            -38.3591
   XY=              1.0030   XZ=              0.4988   YZ=             -1.5055

 Normal termination of Gaussian 16 at Fri Feb 21 13:54:22 2025.
