 Gaussian 16, Revision C.02,
 Gaussian 16:  ES64L-G16RevC.02  7-Dec-2021

 ----------------------------------------------------------
 # td=(singlets, nstates=1) opt=modredundant b3lyp/6-31g(d)
 ----------------------------------------------------------

 -------------------
 L-(-)-Phenylalanine
 -------------------
 Symbolic Z-matrix:
 Charge =  0 Multiplicity = 1

 SCF Done:  E(RB3LYP) =  -554.764745450     A.U. after   15 cycles
 Total Energy, E(TD-HF/TD-DFT) =  -554.589651799
 SCF Done:  E(RB3LYP) =  -554.764292857     A.U. after   13 cycles
 Total Energy, E(TD-HF/TD-DFT) =  -554.608180558
 SCF Done:  E(RB3LYP) =  -554.749334343     A.U. after   14 cycles
 Total Energy, E(TD-HF/TD-DFT) =  -554.618239664
 SCF Done:  E(RB3LYP) =  -554.736831135     A.U. after   15 cycles
 Total Energy, E(TD-HF/TD-DFT) =  -554.630539759
 SCF Done:  E(RB3LYP) =  -554.706880094     A.U. after   15 cycles
 Total Energy, E(TD-HF/TD-DFT) =  -554.633658385
 SCF Done:  E(RB3LYP) =  -554.724347346     A.U. after   14 cycles
 Total Energy, E(TD-HF/TD-DFT) =  -554.636188938
 SCF Done:  E(RB3LYP) =  -554.724604533     A.U. after   15 cycles
 Total Energy, E(TD-HF/TD-DFT) =  -554.636542157
 SCF Done:  E(RB3LYP) =  -554.723800959     A.U. after   14 cycles
 Total Energy, E(TD-HF/TD-DFT) =  -554.637410161
 SCF Done:  E(RB3LYP) =  -554.722058201     A.U. after   12 cycles
 Total Energy, E(TD-HF/TD-DFT) =  -554.637728703
 SCF Done:  E(RB3LYP) =  -554.719311890     A.U. after   13 cycles
 Total Energy, E(TD-HF/TD-DFT) =  -554.638269917
 Total Energy, E(TD-HF/TD-DFT) =  -554.638541122
 Total Energy, E(TD-HF/TD-DFT) =  -554.638791103
 Total Energy, E(TD-HF/TD-DFT) =  -554.638984865
 Total Energy, E(TD-HF/TD-DFT) =  -554.639145195
 Total Energy, E(TD-HF/TD-DFT) =  -554.639240879
 Total Energy, E(TD-HF/TD-DFT) =  -554.639416994
 Total Energy, E(TD-HF/TD-DFT) =  -554.639488882
 Total Energy, E(TD-HF/TD-DFT) =  -554.639530390
 Total Energy, E(TD-HF/TD-DFT) =  -554.639540115
 Total Energy, E(TD-HF/TD-DFT) =  -554.639543533
 Optimization completed.
    -- Stationary point found.
 Optimization completed.
 Total Energy, E(TD-HF/TD-DFT) =  -554.635134144
 Total Energy, E(TD-HF/TD-DFT) =  -554.635235344
 Total Energy, E(TD-HF/TD-DFT) =  -554.635241135
 Total Energy, E(TD-HF/TD-DFT) =  -554.635258911
 Total Energy, E(TD-HF/TD-DFT) =  -554.635259628
 Total Energy, E(TD-HF/TD-DFT) =  -554.635982322
 Total Energy, E(TD-HF/TD-DFT) =  -554.637089716
 Total Energy, E(TD-HF/TD-DFT) =  -554.637117145
 Total Energy, E(TD-HF/TD-DFT) =  -554.637118638
 Total Energy, E(TD-HF/TD-DFT) =  -554.637118759
 SCF Done:  E(RB3LYP) =  -554.711702430     A.U. after   12 cycles
 Total Energy, E(TD-HF/TD-DFT) =  -554.637481614
 SCF Done:  E(RB3LYP) =  -554.713845138     A.U. after   12 cycles
 Total Energy, E(TD-HF/TD-DFT) =  -554.638517550
 SCF Done:  E(RB3LYP) =  -554.713893142     A.U. after   12 cycles
 Total Energy, E(TD-HF/TD-DFT) =  -554.638531561
 SCF Done:  E(RB3LYP) =  -554.713978412     A.U. after    8 cycles
 Total Energy, E(TD-HF/TD-DFT) =  -554.638532020
 SCF Done:  E(RB3LYP) =  -554.713960057     A.U. after    7 cycles
 Total Energy, E(TD-HF/TD-DFT) =  -554.638532145
    -- Stationary point found.
 SCF Done:  E(RB3LYP) =  -554.712348151     A.U. after   12 cycles
 Total Energy, E(TD-HF/TD-DFT) =  -554.638440437
 SCF Done:  E(RB3LYP) =  -554.714297803     A.U. after   12 cycles
 Total Energy, E(TD-HF/TD-DFT) =  -554.639435552
 SCF Done:  E(RB3LYP) =  -554.714600229     A.U. after   12 cycles
 Total Energy, E(TD-HF/TD-DFT) =  -554.639448591
 SCF Done:  E(RB3LYP) =  -554.714552201     A.U. after    9 cycles
 Total Energy, E(TD-HF/TD-DFT) =  -554.639449166
 SCF Done:  E(RB3LYP) =  -554.714530200     A.U. after    8 cycles

 Excitation energies and oscillator strengths:

 Excited State   1:      Singlet-A      2.0431 eV  606.86 nm  f=0.0009  <S**2>=0.000
      44 -> 45        -0.70644
 This state for optimization and/or second-order correction.
 Total Energy, E(TD-HF/TD-DFT) =  -554.639449168
 Copying the excited state density for this state as the 1-particle RhoCI density.

 Optimization completed.
    -- Stationary point found.

                         Standard orientation:
 ---------------------------------------------------------------------
 Center     Atomic      Atomic             Coordinates (Angstroms)
 Number     Number       Type             X           Y           Z
 ---------------------------------------------------------------------
      1          6           0       -1.421789   -0.054913    0.213373
      2          1           0       -1.174009    0.400192    1.187967
      3          7           0       -1.248050   -1.479138    0.452009
      4          1           0       -0.347955   -1.890082    0.691421
      5          1           0       -2.106313   -2.027286    0.513401
      6          6           0       -2.867271    0.172801   -0.252358
      7          8           0       -3.189230    1.374559   -0.479473
      8          8           0       -3.660345   -0.641462    0.724174
      9          1           0       -4.573179   -0.397226    0.512059
     10          6           0       -0.385727    0.472971   -0.813190
     11          1           0       -0.647821    1.527486   -0.917847
     12          1           0       -0.596259   -0.002987   -1.777746
     13          6           0        1.056498    0.275797   -0.409373
     14          6           0        1.735923    1.256764    0.329053
     15          6           0        1.755852   -0.889391   -0.763001
     16          6           0        3.061850    1.070762    0.719265
     17          1           0        1.216990    2.174109    0.597075
     18          6           0        3.083318   -1.080997   -0.372555
     19          1           0        1.267536   -1.640818   -1.382752
     20          6           0        3.738801   -0.101472    0.374340
     21          1           0        3.569892    1.844935    1.287945
     22          1           0        3.607060   -1.987805   -0.663443
     23          1           0        4.772283   -0.245260    0.676921
 ---------------------------------------------------------------------

 The electronic state is 1-A.
 Alpha  occ. eigenvalues --  -19.19851 -19.17641 -14.29369 -10.34428 -10.23741
 Alpha  occ. eigenvalues --  -10.19661 -10.18966 -10.18934 -10.18824 -10.18756
 Alpha  occ. eigenvalues --  -10.18725 -10.18515  -1.07502  -1.00986  -0.87573
 Alpha  occ. eigenvalues --   -0.84962  -0.77110  -0.74191  -0.71722  -0.66137
 Alpha  occ. eigenvalues --   -0.60286  -0.59003  -0.56425  -0.51466  -0.50447
 Alpha  occ. eigenvalues --   -0.49272  -0.47642  -0.45778  -0.44974  -0.43615
 Alpha  occ. eigenvalues --   -0.41798  -0.41458  -0.40997  -0.39681  -0.38622
 Alpha  occ. eigenvalues --   -0.36053  -0.35131  -0.33920  -0.33571  -0.32148
 Alpha  occ. eigenvalues --   -0.28855  -0.24886  -0.24288  -0.20030
 Alpha virt. eigenvalues --   -0.08687  -0.00121  -0.00068   0.07265   0.09410
 Alpha virt. eigenvalues --    0.11790   0.12980   0.13249   0.14412   0.16043
 Alpha virt. eigenvalues --    0.16118   0.17279   0.17383   0.18947   0.19585

 Mulliken charges:
               1
     1  C    0.033264
     2  H    0.177005
     3  N   -0.808728
     4  H    0.318609
     5  H    0.331587
     6  C    0.526575
     7  O   -0.404412
     8  O   -0.586821
     9  H    0.406188
    10  C   -0.350193
    11  H    0.160550
    12  H    0.145506
    13  C    0.161015
    14  C   -0.183130
    15  C   -0.192747
    16  C   -0.126813
    17  H    0.128905
    18  C   -0.127978
    19  H    0.132982
    20  C   -0.130728
    21  H    0.130266
    22  H    0.130019
    23  H    0.129079
 Sum of Mulliken charges =  -0.00000

 Dipole moment (field-independent basis, Debye):
    X=             -0.0446    Y=             -1.3271    Z=              0.1969  Tot=              1.3424
 Quadrupole moment (field-independent basis, Debye-Ang):
   XX=            -59.6232   YY=            -69.3351   ZZ=            -71.8129
   XY=              3.9847   XZ=              1.7928   YZ=              3.5594

 Normal termination of Gaussian 16 at Fri Feb 21 19:51:18 2025.
